Program Version,EnergyPlus, Version 24.2.0-94a887817b, YMD=2025.04.24 13:20
1,5,Environment Title[],Latitude[deg],Longitude[deg],Time Zone[],Elevation[m]
2,8,Day of Simulation[],Month[],Day of Month[],DST Indicator[1=yes 0=no],Hour[],StartMinute[],EndMinute[],DayType
3,5,Cumulative Day of Simulation[],Month[],Day of Month[],DST Indicator[1=yes 0=no],DayType  ! When Daily Report Variables Requested
4,2,Cumulative Days of Simulation[],Month[]  ! When Monthly Report Variables Requested
5,1,Cumulative Days of Simulation[] ! When Run Period Report Variables Requested
6,1,Calendar Year of Simulation[] ! When Annual Report Variables Requested
141,1,ZONE_0599100000208986 IDEAL LOADS AIR SYSTEM,Zone Ideal Loads Supply Air Total Heating Energy [J] !Hourly
190,1,ZONE_0599100000208986 IDEAL LOADS AIR SYSTEM,Zone Ideal Loads Supply Air Total Cooling Energy [J] !Hourly
End of Data Dictionary
1,RUN PERIOD 1,  51.96,   4.45,   1.00,  -4.50
2,1, 1, 1, 0, 1, 0.00,60.00,Sunday
141,133113438.09135406
190,0.0
2,1, 1, 1, 0, 2, 0.00,60.00,Sunday
141,137877385.8058196
190,0.0
2,1, 1, 1, 0, 3, 0.00,60.00,Sunday
141,137811030.50527933
190,0.0
2,1, 1, 1, 0, 4, 0.00,60.00,Sunday
141,141346471.74676812
190,0.0
2,1, 1, 1, 0, 5, 0.00,60.00,Sunday
141,143809818.28432077
190,0.0
2,1, 1, 1, 0, 6, 0.00,60.00,Sunday
141,144203556.82147783
190,0.0
2,1, 1, 1, 0, 7, 0.00,60.00,Sunday
141,144826304.58209834
190,0.0
2,1, 1, 1, 0, 8, 0.00,60.00,Sunday
141,144753887.80841196
190,0.0
2,1, 1, 1, 0, 9, 0.00,60.00,Sunday
141,144764524.86763895
190,0.0
2,1, 1, 1, 0,10, 0.00,60.00,Sunday
141,143948590.8166825
190,0.0
2,1, 1, 1, 0,11, 0.00,60.00,Sunday
141,141349329.79971722
190,0.0
2,1, 1, 1, 0,12, 0.00,60.00,Sunday
141,136918919.6678128
190,0.0
2,1, 1, 1, 0,13, 0.00,60.00,Sunday
141,134850166.72933877
190,0.0
2,1, 1, 1, 0,14, 0.00,60.00,Sunday
141,131745195.17508413
190,0.0
2,1, 1, 1, 0,15, 0.00,60.00,Sunday
141,129411664.78600255
190,0.0
2,1, 1, 1, 0,16, 0.00,60.00,Sunday
141,131276023.38446257
190,0.0
2,1, 1, 1, 0,17, 0.00,60.00,Sunday
141,133516752.86490098
190,0.0
2,1, 1, 1, 0,18, 0.00,60.00,Sunday
141,133783601.41151705
190,0.0
2,1, 1, 1, 0,19, 0.00,60.00,Sunday
141,133963341.5697672
190,0.0
2,1, 1, 1, 0,20, 0.00,60.00,Sunday
141,133322786.27900891
190,0.0
2,1, 1, 1, 0,21, 0.00,60.00,Sunday
141,132500326.50306672
190,0.0
2,1, 1, 1, 0,22, 0.00,60.00,Sunday
141,132556981.9382717
190,0.0
2,1, 1, 1, 0,23, 0.00,60.00,Sunday
141,129084083.51747055
190,0.0
2,1, 1, 1, 0,24, 0.00,60.00,Sunday
141,126540757.35721509
190,0.0
2,2, 1, 2, 0, 1, 0.00,60.00,Monday
141,126957716.51010597
190,0.0
2,2, 1, 2, 0, 2, 0.00,60.00,Monday
141,123597179.28339607
190,0.0
2,2, 1, 2, 0, 3, 0.00,60.00,Monday
141,121015352.7140313
190,0.0
2,2, 1, 2, 0, 4, 0.00,60.00,Monday
141,118383914.45734566
190,0.0
2,2, 1, 2, 0, 5, 0.00,60.00,Monday
141,112619810.71646398
190,0.0
2,2, 1, 2, 0, 6, 0.00,60.00,Monday
141,109804661.64091162
190,0.0
2,2, 1, 2, 0, 7, 0.00,60.00,Monday
141,105385476.0708752
190,0.0
2,2, 1, 2, 0, 8, 0.00,60.00,Monday
141,99972321.19450389
190,0.0
2,2, 1, 2, 0, 9, 0.00,60.00,Monday
141,101314097.11427161
190,0.0
2,2, 1, 2, 0,10, 0.00,60.00,Monday
141,104867659.87095083
190,0.0
2,2, 1, 2, 0,11, 0.00,60.00,Monday
141,107121753.83685969
190,0.0
2,2, 1, 2, 0,12, 0.00,60.00,Monday
141,104481903.83982846
190,0.0
2,2, 1, 2, 0,13, 0.00,60.00,Monday
141,103171225.66769437
190,0.0
2,2, 1, 2, 0,14, 0.00,60.00,Monday
141,105565104.84625964
190,0.0
2,2, 1, 2, 0,15, 0.00,60.00,Monday
141,106516891.36315905
190,0.0
2,2, 1, 2, 0,16, 0.00,60.00,Monday
141,108924255.12425989
190,0.0
2,2, 1, 2, 0,17, 0.00,60.00,Monday
141,111346481.15083343
190,0.0
2,2, 1, 2, 0,18, 0.00,60.00,Monday
141,111801939.78148367
190,0.0
2,2, 1, 2, 0,19, 0.00,60.00,Monday
141,114601110.45666891
190,0.0
2,2, 1, 2, 0,20, 0.00,60.00,Monday
141,117226752.66281697
190,0.0
2,2, 1, 2, 0,21, 0.00,60.00,Monday
141,117793429.5485883
190,0.0
2,2, 1, 2, 0,22, 0.00,60.00,Monday
141,117913558.42850877
190,0.0
2,2, 1, 2, 0,23, 0.00,60.00,Monday
141,118246437.25948061
190,0.0
2,2, 1, 2, 0,24, 0.00,60.00,Monday
141,118666216.63403967
190,0.0
2,3, 1, 3, 0, 1, 0.00,60.00,Tuesday
141,119187169.02522321
190,0.0
2,3, 1, 3, 0, 2, 0.00,60.00,Tuesday
141,119476046.55256602
190,0.0
2,3, 1, 3, 0, 3, 0.00,60.00,Tuesday
141,119676262.17152548
190,0.0
2,3, 1, 3, 0, 4, 0.00,60.00,Tuesday
141,120365554.97042775
190,0.0
2,3, 1, 3, 0, 5, 0.00,60.00,Tuesday
141,123779493.55772899
190,0.0
2,3, 1, 3, 0, 6, 0.00,60.00,Tuesday
141,126020191.81418599
190,0.0
2,3, 1, 3, 0, 7, 0.00,60.00,Tuesday
141,127142648.02948275
190,0.0
2,3, 1, 3, 0, 8, 0.00,60.00,Tuesday
141,126960805.25379121
190,0.0
2,3, 1, 3, 0, 9, 0.00,60.00,Tuesday
141,129625334.91210914
190,0.0
2,3, 1, 3, 0,10, 0.00,60.00,Tuesday
141,130921313.50264785
190,0.0
2,3, 1, 3, 0,11, 0.00,60.00,Tuesday
141,131266266.96940747
190,0.0
2,3, 1, 3, 0,12, 0.00,60.00,Tuesday
141,132064888.16100118
190,0.0
2,3, 1, 3, 0,13, 0.00,60.00,Tuesday
141,136061903.84087712
190,0.0
2,3, 1, 3, 0,14, 0.00,60.00,Tuesday
141,138275014.0267287
190,0.0
2,3, 1, 3, 0,15, 0.00,60.00,Tuesday
141,137818536.42395723
190,0.0
2,3, 1, 3, 0,16, 0.00,60.00,Tuesday
141,137383220.7185776
190,0.0
2,3, 1, 3, 0,17, 0.00,60.00,Tuesday
141,137481317.58286434
190,0.0
2,3, 1, 3, 0,18, 0.00,60.00,Tuesday
141,137741843.36239758
190,0.0
2,3, 1, 3, 0,19, 0.00,60.00,Tuesday
141,137015854.2201539
190,0.0
2,3, 1, 3, 0,20, 0.00,60.00,Tuesday
141,133792251.99143349
190,0.0
2,3, 1, 3, 0,21, 0.00,60.00,Tuesday
141,125251764.80320697
190,0.0
2,3, 1, 3, 0,22, 0.00,60.00,Tuesday
141,120687553.48512843
190,0.0
2,3, 1, 3, 0,23, 0.00,60.00,Tuesday
141,123975278.57777125
190,0.0
2,3, 1, 3, 0,24, 0.00,60.00,Tuesday
141,129587382.54222074
190,0.0
2,4, 1, 4, 0, 1, 0.00,60.00,Wednesday
141,132424746.02380502
190,0.0
2,4, 1, 4, 0, 2, 0.00,60.00,Wednesday
141,132078305.30903208
190,0.0
2,4, 1, 4, 0, 3, 0.00,60.00,Wednesday
141,131371165.60793027
190,0.0
2,4, 1, 4, 0, 4, 0.00,60.00,Wednesday
141,132477504.29306796
190,0.0
2,4, 1, 4, 0, 5, 0.00,60.00,Wednesday
141,136353441.59454772
190,0.0
2,4, 1, 4, 0, 6, 0.00,60.00,Wednesday
141,135608968.62033144
190,0.0
2,4, 1, 4, 0, 7, 0.00,60.00,Wednesday
141,135641484.86711252
190,0.0
2,4, 1, 4, 0, 8, 0.00,60.00,Wednesday
141,137307185.8069308
190,0.0
2,4, 1, 4, 0, 9, 0.00,60.00,Wednesday
141,138545715.10558683
190,0.0
2,4, 1, 4, 0,10, 0.00,60.00,Wednesday
141,139567358.25407994
190,0.0
2,4, 1, 4, 0,11, 0.00,60.00,Wednesday
141,133098036.93886112
190,0.0
2,4, 1, 4, 0,12, 0.00,60.00,Wednesday
141,122055628.14232196
190,0.0
2,4, 1, 4, 0,13, 0.00,60.00,Wednesday
141,119246780.0598518
190,0.0
2,4, 1, 4, 0,14, 0.00,60.00,Wednesday
141,119015175.35787918
190,0.0
2,4, 1, 4, 0,15, 0.00,60.00,Wednesday
141,118016699.18313047
190,0.0
2,4, 1, 4, 0,16, 0.00,60.00,Wednesday
141,122597569.69910203
190,0.0
2,4, 1, 4, 0,17, 0.00,60.00,Wednesday
141,130732197.46735567
190,0.0
2,4, 1, 4, 0,18, 0.00,60.00,Wednesday
141,137693306.53274348
190,0.0
2,4, 1, 4, 0,19, 0.00,60.00,Wednesday
141,144745292.69040346
190,0.0
2,4, 1, 4, 0,20, 0.00,60.00,Wednesday
141,148353865.26210123
190,0.0
2,4, 1, 4, 0,21, 0.00,60.00,Wednesday
141,149933865.09763822
190,0.0
2,4, 1, 4, 0,22, 0.00,60.00,Wednesday
141,153412096.2158751
190,0.0
2,4, 1, 4, 0,23, 0.00,60.00,Wednesday
141,151915958.2503263
190,0.0
2,4, 1, 4, 0,24, 0.00,60.00,Wednesday
141,149467122.84463271
190,0.0
2,5, 1, 5, 0, 1, 0.00,60.00,Thursday
141,150636946.83833206
190,0.0
2,5, 1, 5, 0, 2, 0.00,60.00,Thursday
141,149131274.1194605
190,0.0
2,5, 1, 5, 0, 3, 0.00,60.00,Thursday
141,147706397.34011573
190,0.0
2,5, 1, 5, 0, 4, 0.00,60.00,Thursday
141,148356344.6382751
190,0.0
2,5, 1, 5, 0, 5, 0.00,60.00,Thursday
141,146677738.73449203
190,0.0
2,5, 1, 5, 0, 6, 0.00,60.00,Thursday
141,146114578.24646035
190,0.0
2,5, 1, 5, 0, 7, 0.00,60.00,Thursday
141,147658008.6543069
190,0.0
2,5, 1, 5, 0, 8, 0.00,60.00,Thursday
141,148985895.48640272
190,0.0
2,5, 1, 5, 0, 9, 0.00,60.00,Thursday
141,149508753.71721014
190,0.0
2,5, 1, 5, 0,10, 0.00,60.00,Thursday
141,151729639.47565097
190,0.0
2,5, 1, 5, 0,11, 0.00,60.00,Thursday
141,151148522.07514092
190,0.0
2,5, 1, 5, 0,12, 0.00,60.00,Thursday
141,146274777.50869802
190,0.0
2,5, 1, 5, 0,13, 0.00,60.00,Thursday
141,144465657.0527212
190,0.0
2,5, 1, 5, 0,14, 0.00,60.00,Thursday
141,140777381.98848036
190,0.0
2,5, 1, 5, 0,15, 0.00,60.00,Thursday
141,137657660.81886572
190,0.0
2,5, 1, 5, 0,16, 0.00,60.00,Thursday
141,139378844.60994822
190,0.0
2,5, 1, 5, 0,17, 0.00,60.00,Thursday
141,138175257.44075617
190,0.0
2,5, 1, 5, 0,18, 0.00,60.00,Thursday
141,135983380.09089896
190,0.0
2,5, 1, 5, 0,19, 0.00,60.00,Thursday
141,136134708.924075
190,0.0
2,5, 1, 5, 0,20, 0.00,60.00,Thursday
141,135344240.65200168
190,0.0
2,5, 1, 5, 0,21, 0.00,60.00,Thursday
141,134292966.71975997
190,0.0
2,5, 1, 5, 0,22, 0.00,60.00,Thursday
141,133934718.41947594
190,0.0
2,5, 1, 5, 0,23, 0.00,60.00,Thursday
141,134282632.67373037
190,0.0
2,5, 1, 5, 0,24, 0.00,60.00,Thursday
141,134762190.91476884
190,0.0
2,6, 1, 6, 0, 1, 0.00,60.00,Friday
141,135026007.32365412
190,0.0
2,6, 1, 6, 0, 2, 0.00,60.00,Friday
141,135305977.07496488
190,0.0
2,6, 1, 6, 0, 3, 0.00,60.00,Friday
141,138322623.85951906
190,0.0
2,6, 1, 6, 0, 4, 0.00,60.00,Friday
141,141263845.57101387
190,0.0
2,6, 1, 6, 0, 5, 0.00,60.00,Friday
141,142747351.721506
190,0.0
2,6, 1, 6, 0, 6, 0.00,60.00,Friday
141,144616722.7107536
190,0.0
2,6, 1, 6, 0, 7, 0.00,60.00,Friday
141,147471445.19033697
190,0.0
2,6, 1, 6, 0, 8, 0.00,60.00,Friday
141,150220033.0556253
190,0.0
2,6, 1, 6, 0, 9, 0.00,60.00,Friday
141,153594633.95864934
190,0.0
2,6, 1, 6, 0,10, 0.00,60.00,Friday
141,155690562.04729247
190,0.0
2,6, 1, 6, 0,11, 0.00,60.00,Friday
141,153680886.17888916
190,0.0
2,6, 1, 6, 0,12, 0.00,60.00,Friday
141,150500093.4762904
190,0.0
2,6, 1, 6, 0,13, 0.00,60.00,Friday
141,149167901.1384462
190,0.0
2,6, 1, 6, 0,14, 0.00,60.00,Friday
141,148768557.19709527
190,0.0
2,6, 1, 6, 0,15, 0.00,60.00,Friday
141,147983549.14555055
190,0.0
2,6, 1, 6, 0,16, 0.00,60.00,Friday
141,145803907.46879575
190,0.0
2,6, 1, 6, 0,17, 0.00,60.00,Friday
141,143409764.75031713
190,0.0
2,6, 1, 6, 0,18, 0.00,60.00,Friday
141,142117202.7902842
190,0.0
2,6, 1, 6, 0,19, 0.00,60.00,Friday
141,140653873.7448147
190,0.0
2,6, 1, 6, 0,20, 0.00,60.00,Friday
141,137471148.03502628
190,0.0
2,6, 1, 6, 0,21, 0.00,60.00,Friday
141,129831242.56155327
190,0.0
2,6, 1, 6, 0,22, 0.00,60.00,Friday
141,120794833.25482786
190,0.0
2,6, 1, 6, 0,23, 0.00,60.00,Friday
141,116842706.44647267
190,0.0
2,6, 1, 6, 0,24, 0.00,60.00,Friday
141,117844604.11821792
190,0.0
2,7, 1, 7, 0, 1, 0.00,60.00,Saturday
141,125111615.83180961
190,0.0
2,7, 1, 7, 0, 2, 0.00,60.00,Saturday
141,132285237.88045993
190,0.0
2,7, 1, 7, 0, 3, 0.00,60.00,Saturday
141,131178173.05017748
190,0.0
2,7, 1, 7, 0, 4, 0.00,60.00,Saturday
141,131658818.46031454
190,0.0
2,7, 1, 7, 0, 5, 0.00,60.00,Saturday
141,136510902.85336742
190,0.0
2,7, 1, 7, 0, 6, 0.00,60.00,Saturday
141,140343452.23132348
190,0.0
2,7, 1, 7, 0, 7, 0.00,60.00,Saturday
141,142638292.15555584
190,0.0
2,7, 1, 7, 0, 8, 0.00,60.00,Saturday
141,143848687.54794955
190,0.0
2,7, 1, 7, 0, 9, 0.00,60.00,Saturday
141,141256149.3319224
190,0.0
2,7, 1, 7, 0,10, 0.00,60.00,Saturday
141,139020211.96212047
190,0.0
2,7, 1, 7, 0,11, 0.00,60.00,Saturday
141,132068792.50184038
190,0.0
2,7, 1, 7, 0,12, 0.00,60.00,Saturday
141,125091514.69555512
190,0.0
2,7, 1, 7, 0,13, 0.00,60.00,Saturday
141,120068984.73190628
190,0.0
2,7, 1, 7, 0,14, 0.00,60.00,Saturday
141,117536268.24581882
190,0.0
2,7, 1, 7, 0,15, 0.00,60.00,Saturday
141,118623891.40389591
190,0.0
2,7, 1, 7, 0,16, 0.00,60.00,Saturday
141,120717382.76204927
190,0.0
2,7, 1, 7, 0,17, 0.00,60.00,Saturday
141,122157347.54596281
190,0.0
2,7, 1, 7, 0,18, 0.00,60.00,Saturday
141,124971214.27601793
190,0.0
2,7, 1, 7, 0,19, 0.00,60.00,Saturday
141,127549761.3182793
190,0.0
2,7, 1, 7, 0,20, 0.00,60.00,Saturday
141,130112878.01055911
190,0.0
2,7, 1, 7, 0,21, 0.00,60.00,Saturday
141,131902327.7470043
190,0.0
2,7, 1, 7, 0,22, 0.00,60.00,Saturday
141,131652810.72666357
190,0.0
2,7, 1, 7, 0,23, 0.00,60.00,Saturday
141,131863753.42938584
190,0.0
2,7, 1, 7, 0,24, 0.00,60.00,Saturday
141,131580743.36963978
190,0.0
2,8, 1, 8, 0, 1, 0.00,60.00,Sunday
141,129480339.77585287
190,0.0
2,8, 1, 8, 0, 2, 0.00,60.00,Sunday
141,127141435.4740909
190,0.0
2,8, 1, 8, 0, 3, 0.00,60.00,Sunday
141,125135800.60181613
190,0.0
2,8, 1, 8, 0, 4, 0.00,60.00,Sunday
141,122194747.09261295
190,0.0
2,8, 1, 8, 0, 5, 0.00,60.00,Sunday
141,118543546.35949135
190,0.0
2,8, 1, 8, 0, 6, 0.00,60.00,Sunday
141,115835625.4351859
190,0.0
2,8, 1, 8, 0, 7, 0.00,60.00,Sunday
141,113757151.42505366
190,0.0
2,8, 1, 8, 0, 8, 0.00,60.00,Sunday
141,111912422.96007039
190,0.0
2,8, 1, 8, 0, 9, 0.00,60.00,Sunday
141,109885595.04112327
190,0.0
2,8, 1, 8, 0,10, 0.00,60.00,Sunday
141,109162676.70046486
190,0.0
2,8, 1, 8, 0,11, 0.00,60.00,Sunday
141,108518583.46282688
190,0.0
2,8, 1, 8, 0,12, 0.00,60.00,Sunday
141,108729810.36482033
190,0.0
2,8, 1, 8, 0,13, 0.00,60.00,Sunday
141,108096093.2150042
190,0.0
2,8, 1, 8, 0,14, 0.00,60.00,Sunday
141,108289898.64240886
190,0.0
2,8, 1, 8, 0,15, 0.00,60.00,Sunday
141,112435768.91697273
190,0.0
2,8, 1, 8, 0,16, 0.00,60.00,Sunday
141,115355641.41045019
190,0.0
2,8, 1, 8, 0,17, 0.00,60.00,Sunday
141,115268036.02606736
190,0.0
2,8, 1, 8, 0,18, 0.00,60.00,Sunday
141,116500553.80165523
190,0.0
2,8, 1, 8, 0,19, 0.00,60.00,Sunday
141,115627350.91932619
190,0.0
2,8, 1, 8, 0,20, 0.00,60.00,Sunday
141,112914980.8350223
190,0.0
2,8, 1, 8, 0,21, 0.00,60.00,Sunday
141,111017679.47504392
190,0.0
2,8, 1, 8, 0,22, 0.00,60.00,Sunday
141,111650765.23528117
190,0.0
2,8, 1, 8, 0,23, 0.00,60.00,Sunday
141,112284065.60036917
190,0.0
2,8, 1, 8, 0,24, 0.00,60.00,Sunday
141,114012513.06245899
190,0.0
2,9, 1, 9, 0, 1, 0.00,60.00,Monday
141,114459189.24868083
190,0.0
2,9, 1, 9, 0, 2, 0.00,60.00,Monday
141,114791695.84926492
190,0.0
2,9, 1, 9, 0, 3, 0.00,60.00,Monday
141,114565722.26699314
190,0.0
2,9, 1, 9, 0, 4, 0.00,60.00,Monday
141,113765905.60864216
190,0.0
2,9, 1, 9, 0, 5, 0.00,60.00,Monday
141,111760899.07108113
190,0.0
2,9, 1, 9, 0, 6, 0.00,60.00,Monday
141,109725902.68892093
190,0.0
2,9, 1, 9, 0, 7, 0.00,60.00,Monday
141,108284003.29921721
190,0.0
2,9, 1, 9, 0, 8, 0.00,60.00,Monday
141,107537287.56616381
190,0.0
2,9, 1, 9, 0, 9, 0.00,60.00,Monday
141,105218890.07572359
190,0.0
2,9, 1, 9, 0,10, 0.00,60.00,Monday
141,99423275.61416982
190,0.0
2,9, 1, 9, 0,11, 0.00,60.00,Monday
141,94449325.9239572
190,0.0
2,9, 1, 9, 0,12, 0.00,60.00,Monday
141,91656152.67609896
190,0.0
2,9, 1, 9, 0,13, 0.00,60.00,Monday
141,89291981.27595091
190,0.0
2,9, 1, 9, 0,14, 0.00,60.00,Monday
141,87475731.01959543
190,0.0
2,9, 1, 9, 0,15, 0.00,60.00,Monday
141,86672789.46252508
190,0.0
2,9, 1, 9, 0,16, 0.00,60.00,Monday
141,87559301.5982513
190,0.0
2,9, 1, 9, 0,17, 0.00,60.00,Monday
141,91209492.38570061
190,0.0
2,9, 1, 9, 0,18, 0.00,60.00,Monday
141,94651395.27883771
190,0.0
2,9, 1, 9, 0,19, 0.00,60.00,Monday
141,94100299.48284715
190,0.0
2,9, 1, 9, 0,20, 0.00,60.00,Monday
141,88683512.08399752
190,0.0
2,9, 1, 9, 0,21, 0.00,60.00,Monday
141,83248577.67439231
190,0.0
2,9, 1, 9, 0,22, 0.00,60.00,Monday
141,79861430.48742923
190,0.0
2,9, 1, 9, 0,23, 0.00,60.00,Monday
141,79077953.50968753
190,0.0
2,9, 1, 9, 0,24, 0.00,60.00,Monday
141,79179185.58854611
190,0.0
2,10, 1,10, 0, 1, 0.00,60.00,Tuesday
141,80340608.70218734
190,0.0
2,10, 1,10, 0, 2, 0.00,60.00,Tuesday
141,80997732.27859876
190,0.0
2,10, 1,10, 0, 3, 0.00,60.00,Tuesday
141,80819603.49693426
190,0.0
2,10, 1,10, 0, 4, 0.00,60.00,Tuesday
141,82084053.5613427
190,0.0
2,10, 1,10, 0, 5, 0.00,60.00,Tuesday
141,82343600.67614622
190,0.0
2,10, 1,10, 0, 6, 0.00,60.00,Tuesday
141,82234193.83830218
190,0.0
2,10, 1,10, 0, 7, 0.00,60.00,Tuesday
141,82206745.40836294
190,0.0
2,10, 1,10, 0, 8, 0.00,60.00,Tuesday
141,81451519.7097386
190,0.0
2,10, 1,10, 0, 9, 0.00,60.00,Tuesday
141,80500642.43308666
190,0.0
2,10, 1,10, 0,10, 0.00,60.00,Tuesday
141,79297060.87747702
190,0.0
2,10, 1,10, 0,11, 0.00,60.00,Tuesday
141,77615145.96565366
190,0.0
2,10, 1,10, 0,12, 0.00,60.00,Tuesday
141,75724612.10927951
190,0.0
2,10, 1,10, 0,13, 0.00,60.00,Tuesday
141,75405710.2590604
190,0.0
2,10, 1,10, 0,14, 0.00,60.00,Tuesday
141,82199169.58209889
190,0.0
2,10, 1,10, 0,15, 0.00,60.00,Tuesday
141,87703164.66659833
190,0.0
2,10, 1,10, 0,16, 0.00,60.00,Tuesday
141,91133548.09700991
190,0.0
2,10, 1,10, 0,17, 0.00,60.00,Tuesday
141,94740055.46967736
190,0.0
2,10, 1,10, 0,18, 0.00,60.00,Tuesday
141,99476845.35936342
190,0.0
2,10, 1,10, 0,19, 0.00,60.00,Tuesday
141,102203537.4093427
190,0.0
2,10, 1,10, 0,20, 0.00,60.00,Tuesday
141,104489337.11487253
190,0.0
2,10, 1,10, 0,21, 0.00,60.00,Tuesday
141,108001335.95140359
190,0.0
2,10, 1,10, 0,22, 0.00,60.00,Tuesday
141,110453709.96236707
190,0.0
2,10, 1,10, 0,23, 0.00,60.00,Tuesday
141,110386763.8216342
190,0.0
2,10, 1,10, 0,24, 0.00,60.00,Tuesday
141,113285561.35524929
190,0.0
2,11, 1,11, 0, 1, 0.00,60.00,Wednesday
141,114672446.39465344
190,0.0
2,11, 1,11, 0, 2, 0.00,60.00,Wednesday
141,116071743.69538644
190,0.0
2,11, 1,11, 0, 3, 0.00,60.00,Wednesday
141,118187471.8470375
190,0.0
2,11, 1,11, 0, 4, 0.00,60.00,Wednesday
141,117785580.21994554
190,0.0
2,11, 1,11, 0, 5, 0.00,60.00,Wednesday
141,117695858.14159243
190,0.0
2,11, 1,11, 0, 6, 0.00,60.00,Wednesday
141,118133290.04394054
190,0.0
2,11, 1,11, 0, 7, 0.00,60.00,Wednesday
141,119241975.40185168
190,0.0
2,11, 1,11, 0, 8, 0.00,60.00,Wednesday
141,120327428.84737432
190,0.0
2,11, 1,11, 0, 9, 0.00,60.00,Wednesday
141,120561423.12279186
190,0.0
2,11, 1,11, 0,10, 0.00,60.00,Wednesday
141,120190629.3858307
190,0.0
2,11, 1,11, 0,11, 0.00,60.00,Wednesday
141,119181302.59190553
190,0.0
2,11, 1,11, 0,12, 0.00,60.00,Wednesday
141,117211954.30746458
190,0.0
2,11, 1,11, 0,13, 0.00,60.00,Wednesday
141,115644416.96809769
190,0.0
2,11, 1,11, 0,14, 0.00,60.00,Wednesday
141,114924200.25696656
190,0.0
2,11, 1,11, 0,15, 0.00,60.00,Wednesday
141,114561155.95518363
190,0.0
2,11, 1,11, 0,16, 0.00,60.00,Wednesday
141,114255837.41153559
190,0.0
2,11, 1,11, 0,17, 0.00,60.00,Wednesday
141,112505385.21878399
190,0.0
2,11, 1,11, 0,18, 0.00,60.00,Wednesday
141,110724341.21815579
190,0.0
2,11, 1,11, 0,19, 0.00,60.00,Wednesday
141,109315483.49587381
190,0.0
2,11, 1,11, 0,20, 0.00,60.00,Wednesday
141,108712294.79642394
190,0.0
2,11, 1,11, 0,21, 0.00,60.00,Wednesday
141,108272694.32764688
190,0.0
2,11, 1,11, 0,22, 0.00,60.00,Wednesday
141,105524007.14166462
190,0.0
2,11, 1,11, 0,23, 0.00,60.00,Wednesday
141,103417793.12256236
190,0.0
2,11, 1,11, 0,24, 0.00,60.00,Wednesday
141,103403263.60041584
190,0.0
2,12, 1,12, 0, 1, 0.00,60.00,Thursday
141,104179611.54703782
190,0.0
2,12, 1,12, 0, 2, 0.00,60.00,Thursday
141,104188350.4742029
190,0.0
2,12, 1,12, 0, 3, 0.00,60.00,Thursday
141,103506992.89108488
190,0.0
2,12, 1,12, 0, 4, 0.00,60.00,Thursday
141,103496314.00808087
190,0.0
2,12, 1,12, 0, 5, 0.00,60.00,Thursday
141,104277874.26978719
190,0.0
2,12, 1,12, 0, 6, 0.00,60.00,Thursday
141,106241484.13487943
190,0.0
2,12, 1,12, 0, 7, 0.00,60.00,Thursday
141,107287242.27759708
190,0.0
2,12, 1,12, 0, 8, 0.00,60.00,Thursday
141,107515226.82486911
190,0.0
2,12, 1,12, 0, 9, 0.00,60.00,Thursday
141,106058149.84866104
190,0.0
2,12, 1,12, 0,10, 0.00,60.00,Thursday
141,102932839.23869275
190,0.0
2,12, 1,12, 0,11, 0.00,60.00,Thursday
141,100542780.28501587
190,0.0
2,12, 1,12, 0,12, 0.00,60.00,Thursday
141,99155241.48934472
190,0.0
2,12, 1,12, 0,13, 0.00,60.00,Thursday
141,97351087.89956754
190,0.0
2,12, 1,12, 0,14, 0.00,60.00,Thursday
141,95419674.01850073
190,0.0
2,12, 1,12, 0,15, 0.00,60.00,Thursday
141,95332918.24685237
190,0.0
2,12, 1,12, 0,16, 0.00,60.00,Thursday
141,96077673.27582523
190,0.0
2,12, 1,12, 0,17, 0.00,60.00,Thursday
141,99777123.67048433
190,0.0
2,12, 1,12, 0,18, 0.00,60.00,Thursday
141,101914629.98850627
190,0.0
2,12, 1,12, 0,19, 0.00,60.00,Thursday
141,100979045.23300193
190,0.0
2,12, 1,12, 0,20, 0.00,60.00,Thursday
141,98855767.37699692
190,0.0
2,12, 1,12, 0,21, 0.00,60.00,Thursday
141,97951884.76915841
190,0.0
2,12, 1,12, 0,22, 0.00,60.00,Thursday
141,96479685.68468711
190,0.0
2,12, 1,12, 0,23, 0.00,60.00,Thursday
141,95850304.44033864
190,0.0
2,12, 1,12, 0,24, 0.00,60.00,Thursday
141,95809250.38087551
190,0.0
2,13, 1,13, 0, 1, 0.00,60.00,Friday
141,94719533.2931658
190,0.0
2,13, 1,13, 0, 2, 0.00,60.00,Friday
141,93676589.69120254
190,0.0
2,13, 1,13, 0, 3, 0.00,60.00,Friday
141,92200429.93087302
190,0.0
2,13, 1,13, 0, 4, 0.00,60.00,Friday
141,91202127.09392637
190,0.0
2,13, 1,13, 0, 5, 0.00,60.00,Friday
141,90881310.70885086
190,0.0
2,13, 1,13, 0, 6, 0.00,60.00,Friday
141,90876464.9446455
190,0.0
2,13, 1,13, 0, 7, 0.00,60.00,Friday
141,91410766.9348821
190,0.0
2,13, 1,13, 0, 8, 0.00,60.00,Friday
141,91238235.06720161
190,0.0
2,13, 1,13, 0, 9, 0.00,60.00,Friday
141,90106339.73465048
190,0.0
2,13, 1,13, 0,10, 0.00,60.00,Friday
141,92246641.70613015
190,0.0
2,13, 1,13, 0,11, 0.00,60.00,Friday
141,94695042.45332891
190,0.0
2,13, 1,13, 0,12, 0.00,60.00,Friday
141,94747703.0758568
190,0.0
2,13, 1,13, 0,13, 0.00,60.00,Friday
141,94987748.94774029
190,0.0
2,13, 1,13, 0,14, 0.00,60.00,Friday
141,96570501.57120544
190,0.0
2,13, 1,13, 0,15, 0.00,60.00,Friday
141,97463380.99278387
190,0.0
2,13, 1,13, 0,16, 0.00,60.00,Friday
141,97195551.13489567
190,0.0
2,13, 1,13, 0,17, 0.00,60.00,Friday
141,96725761.4200104
190,0.0
2,13, 1,13, 0,18, 0.00,60.00,Friday
141,96539691.52433309
190,0.0
2,13, 1,13, 0,19, 0.00,60.00,Friday
141,98124658.79983673
190,0.0
2,13, 1,13, 0,20, 0.00,60.00,Friday
141,100888284.9160087
190,0.0
2,13, 1,13, 0,21, 0.00,60.00,Friday
141,103390215.26366697
190,0.0
2,13, 1,13, 0,22, 0.00,60.00,Friday
141,105078688.98120654
190,0.0
2,13, 1,13, 0,23, 0.00,60.00,Friday
141,104780302.44183372
190,0.0
2,13, 1,13, 0,24, 0.00,60.00,Friday
141,111467680.99177958
190,0.0
2,14, 1,14, 0, 1, 0.00,60.00,Saturday
141,116249268.11627758
190,0.0
2,14, 1,14, 0, 2, 0.00,60.00,Saturday
141,114890550.49678266
190,0.0
2,14, 1,14, 0, 3, 0.00,60.00,Saturday
141,115709575.17304651
190,0.0
2,14, 1,14, 0, 4, 0.00,60.00,Saturday
141,115457072.94424771
190,0.0
2,14, 1,14, 0, 5, 0.00,60.00,Saturday
141,115664909.20158574
190,0.0
2,14, 1,14, 0, 6, 0.00,60.00,Saturday
141,120651866.93731815
190,0.0
2,14, 1,14, 0, 7, 0.00,60.00,Saturday
141,124497585.76558362
190,0.0
2,14, 1,14, 0, 8, 0.00,60.00,Saturday
141,123775152.48666815
190,0.0
2,14, 1,14, 0, 9, 0.00,60.00,Saturday
141,126070399.59079637
190,0.0
2,14, 1,14, 0,10, 0.00,60.00,Saturday
141,129050531.33147892
190,0.0
2,14, 1,14, 0,11, 0.00,60.00,Saturday
141,128532435.96012235
190,0.0
2,14, 1,14, 0,12, 0.00,60.00,Saturday
141,127481192.59120952
190,0.0
2,14, 1,14, 0,13, 0.00,60.00,Saturday
141,125234106.38770208
190,0.0
2,14, 1,14, 0,14, 0.00,60.00,Saturday
141,120148631.66768682
190,0.0
2,14, 1,14, 0,15, 0.00,60.00,Saturday
141,119654221.83799748
190,0.0
2,14, 1,14, 0,16, 0.00,60.00,Saturday
141,120903983.50594713
190,0.0
2,14, 1,14, 0,17, 0.00,60.00,Saturday
141,122960991.11021064
190,0.0
2,14, 1,14, 0,18, 0.00,60.00,Saturday
141,126832047.2765635
190,0.0
2,14, 1,14, 0,19, 0.00,60.00,Saturday
141,126847617.90237954
190,0.0
2,14, 1,14, 0,20, 0.00,60.00,Saturday
141,127453077.04809919
190,0.0
2,14, 1,14, 0,21, 0.00,60.00,Saturday
141,126896857.94873038
190,0.0
2,14, 1,14, 0,22, 0.00,60.00,Saturday
141,125805972.18279104
190,0.0
2,14, 1,14, 0,23, 0.00,60.00,Saturday
141,125170359.89762725
190,0.0
2,14, 1,14, 0,24, 0.00,60.00,Saturday
141,125143437.25083375
190,0.0
2,15, 1,15, 0, 1, 0.00,60.00,Sunday
141,123096315.77043314
190,0.0
2,15, 1,15, 0, 2, 0.00,60.00,Sunday
141,117677395.88306274
190,0.0
2,15, 1,15, 0, 3, 0.00,60.00,Sunday
141,115165993.75781737
190,0.0
2,15, 1,15, 0, 4, 0.00,60.00,Sunday
141,113404705.93406102
190,0.0
2,15, 1,15, 0, 5, 0.00,60.00,Sunday
141,109871147.99440777
190,0.0
2,15, 1,15, 0, 6, 0.00,60.00,Sunday
141,106018330.82355274
190,0.0
2,15, 1,15, 0, 7, 0.00,60.00,Sunday
141,102090583.43706572
190,0.0
2,15, 1,15, 0, 8, 0.00,60.00,Sunday
141,99331515.03176348
190,0.0
2,15, 1,15, 0, 9, 0.00,60.00,Sunday
141,97074081.13196012
190,0.0
2,15, 1,15, 0,10, 0.00,60.00,Sunday
141,96363149.87245011
190,0.0
2,15, 1,15, 0,11, 0.00,60.00,Sunday
141,97864112.80407044
190,0.0
2,15, 1,15, 0,12, 0.00,60.00,Sunday
141,102490892.04900156
190,0.0
2,15, 1,15, 0,13, 0.00,60.00,Sunday
141,105712907.66004664
190,0.0
2,15, 1,15, 0,14, 0.00,60.00,Sunday
141,106680806.09348693
190,0.0
2,15, 1,15, 0,15, 0.00,60.00,Sunday
141,106754888.35605755
190,0.0
2,15, 1,15, 0,16, 0.00,60.00,Sunday
141,105025086.04019886
190,0.0
2,15, 1,15, 0,17, 0.00,60.00,Sunday
141,103805785.27781974
190,0.0
2,15, 1,15, 0,18, 0.00,60.00,Sunday
141,103884371.51975453
190,0.0
2,15, 1,15, 0,19, 0.00,60.00,Sunday
141,104551899.3270496
190,0.0
2,15, 1,15, 0,20, 0.00,60.00,Sunday
141,105492062.26479743
190,0.0
2,15, 1,15, 0,21, 0.00,60.00,Sunday
141,107735871.83838129
190,0.0
2,15, 1,15, 0,22, 0.00,60.00,Sunday
141,108720335.25309573
190,0.0
2,15, 1,15, 0,23, 0.00,60.00,Sunday
141,108831488.3764813
190,0.0
2,15, 1,15, 0,24, 0.00,60.00,Sunday
141,109497644.48913601
190,0.0
2,16, 1,16, 0, 1, 0.00,60.00,Monday
141,111831051.15852535
190,0.0
2,16, 1,16, 0, 2, 0.00,60.00,Monday
141,114086470.98976713
190,0.0
2,16, 1,16, 0, 3, 0.00,60.00,Monday
141,115482739.10417697
190,0.0
2,16, 1,16, 0, 4, 0.00,60.00,Monday
141,116582525.21732938
190,0.0
2,16, 1,16, 0, 5, 0.00,60.00,Monday
141,118091152.11841196
190,0.0
2,16, 1,16, 0, 6, 0.00,60.00,Monday
141,119400139.91371474
190,0.0
2,16, 1,16, 0, 7, 0.00,60.00,Monday
141,121844624.99574709
190,0.0
2,16, 1,16, 0, 8, 0.00,60.00,Monday
141,124148056.15666336
190,0.0
2,16, 1,16, 0, 9, 0.00,60.00,Monday
141,125243983.17613235
190,0.0
2,16, 1,16, 0,10, 0.00,60.00,Monday
141,125463894.57965782
190,0.0
2,16, 1,16, 0,11, 0.00,60.00,Monday
141,120972415.05223095
190,0.0
2,16, 1,16, 0,12, 0.00,60.00,Monday
141,117026215.12777022
190,0.0
2,16, 1,16, 0,13, 0.00,60.00,Monday
141,113952233.34443429
190,0.0
2,16, 1,16, 0,14, 0.00,60.00,Monday
141,111865598.18706584
190,0.0
2,16, 1,16, 0,15, 0.00,60.00,Monday
141,111625793.91049336
190,0.0
2,16, 1,16, 0,16, 0.00,60.00,Monday
141,112556606.1683414
190,0.0
2,16, 1,16, 0,17, 0.00,60.00,Monday
141,114868795.07297435
190,0.0
2,16, 1,16, 0,18, 0.00,60.00,Monday
141,119302948.03917675
190,0.0
2,16, 1,16, 0,19, 0.00,60.00,Monday
141,123940283.94240068
190,0.0
2,16, 1,16, 0,20, 0.00,60.00,Monday
141,126237989.58753783
190,0.0
2,16, 1,16, 0,21, 0.00,60.00,Monday
141,128030593.6823468
190,0.0
2,16, 1,16, 0,22, 0.00,60.00,Monday
141,129663982.64712563
190,0.0
2,16, 1,16, 0,23, 0.00,60.00,Monday
141,132183679.67151737
190,0.0
2,16, 1,16, 0,24, 0.00,60.00,Monday
141,132701272.53004146
190,0.0
2,17, 1,17, 0, 1, 0.00,60.00,Tuesday
141,133438440.65234277
190,0.0
2,17, 1,17, 0, 2, 0.00,60.00,Tuesday
141,136570763.80720246
190,0.0
2,17, 1,17, 0, 3, 0.00,60.00,Tuesday
141,139268860.20687044
190,0.0
2,17, 1,17, 0, 4, 0.00,60.00,Tuesday
141,141656658.71746767
190,0.0
2,17, 1,17, 0, 5, 0.00,60.00,Tuesday
141,144353715.351257
190,0.0
2,17, 1,17, 0, 6, 0.00,60.00,Tuesday
141,147107533.24393868
190,0.0
2,17, 1,17, 0, 7, 0.00,60.00,Tuesday
141,148896826.38865504
190,0.0
2,17, 1,17, 0, 8, 0.00,60.00,Tuesday
141,150027744.8651163
190,0.0
2,17, 1,17, 0, 9, 0.00,60.00,Tuesday
141,150553484.21319214
190,0.0
2,17, 1,17, 0,10, 0.00,60.00,Tuesday
141,145562228.63720125
190,0.0
2,17, 1,17, 0,11, 0.00,60.00,Tuesday
141,138028741.89429164
190,0.0
2,17, 1,17, 0,12, 0.00,60.00,Tuesday
141,131576696.53374611
190,0.0
2,17, 1,17, 0,13, 0.00,60.00,Tuesday
141,127903163.87218432
190,0.0
2,17, 1,17, 0,14, 0.00,60.00,Tuesday
141,127175565.78012466
190,0.0
2,17, 1,17, 0,15, 0.00,60.00,Tuesday
141,128341119.17370701
190,0.0
2,17, 1,17, 0,16, 0.00,60.00,Tuesday
141,131755330.95486915
190,0.0
2,17, 1,17, 0,17, 0.00,60.00,Tuesday
141,134102758.92931893
190,0.0
2,17, 1,17, 0,18, 0.00,60.00,Tuesday
141,133549481.4752129
190,0.0
2,17, 1,17, 0,19, 0.00,60.00,Tuesday
141,132382449.09376618
190,0.0
2,17, 1,17, 0,20, 0.00,60.00,Tuesday
141,132299346.38240737
190,0.0
2,17, 1,17, 0,21, 0.00,60.00,Tuesday
141,132890775.56074908
190,0.0
2,17, 1,17, 0,22, 0.00,60.00,Tuesday
141,132668653.29868346
190,0.0
2,17, 1,17, 0,23, 0.00,60.00,Tuesday
141,132562660.31289634
190,0.0
2,17, 1,17, 0,24, 0.00,60.00,Tuesday
141,134070143.20655024
190,0.0
2,18, 1,18, 0, 1, 0.00,60.00,Wednesday
141,135068906.48180136
190,0.0
2,18, 1,18, 0, 2, 0.00,60.00,Wednesday
141,135879531.21560007
190,0.0
2,18, 1,18, 0, 3, 0.00,60.00,Wednesday
141,136270386.97013336
190,0.0
2,18, 1,18, 0, 4, 0.00,60.00,Wednesday
141,136356722.79177138
190,0.0
2,18, 1,18, 0, 5, 0.00,60.00,Wednesday
141,136712712.5356174
190,0.0
2,18, 1,18, 0, 6, 0.00,60.00,Wednesday
141,137388596.0084041
190,0.0
2,18, 1,18, 0, 7, 0.00,60.00,Wednesday
141,140276629.62815526
190,0.0
2,18, 1,18, 0, 8, 0.00,60.00,Wednesday
141,141250715.58461708
190,0.0
2,18, 1,18, 0, 9, 0.00,60.00,Wednesday
141,141822516.9914277
190,0.0
2,18, 1,18, 0,10, 0.00,60.00,Wednesday
141,141772410.10317627
190,0.0
2,18, 1,18, 0,11, 0.00,60.00,Wednesday
141,139266383.4596827
190,0.0
2,18, 1,18, 0,12, 0.00,60.00,Wednesday
141,137342381.24513334
190,0.0
2,18, 1,18, 0,13, 0.00,60.00,Wednesday
141,138286174.18338192
190,0.0
2,18, 1,18, 0,14, 0.00,60.00,Wednesday
141,140232093.8207076
190,0.0
2,18, 1,18, 0,15, 0.00,60.00,Wednesday
141,141191288.64832503
190,0.0
2,18, 1,18, 0,16, 0.00,60.00,Wednesday
141,143285832.42841277
190,0.0
2,18, 1,18, 0,17, 0.00,60.00,Wednesday
141,144200961.63446188
190,0.0
2,18, 1,18, 0,18, 0.00,60.00,Wednesday
141,143096896.10583046
190,0.0
2,18, 1,18, 0,19, 0.00,60.00,Wednesday
141,142467870.928653
190,0.0
2,18, 1,18, 0,20, 0.00,60.00,Wednesday
141,142712071.2888633
190,0.0
2,18, 1,18, 0,21, 0.00,60.00,Wednesday
141,142890884.87287265
190,0.0
2,18, 1,18, 0,22, 0.00,60.00,Wednesday
141,143551689.29941007
190,0.0
2,18, 1,18, 0,23, 0.00,60.00,Wednesday
141,144033796.58990327
190,0.0
2,18, 1,18, 0,24, 0.00,60.00,Wednesday