Program Version,EnergyPlus, Version 24.2.0-94a887817b, YMD=2025.04.24 13:20
1,5,Environment Title[],Latitude[deg],Longitude[deg],Time Zone[],Elevation[m]
2,8,Day of Simulation[],Month[],Day of Month[],DST Indicator[1=yes 0=no],Hour[],StartMinute[],EndMinute[],DayType
3,5,Cumulative Day of Simulation[],Month[],Day of Month[],DST Indicator[1=yes 0=no],DayType  ! When Daily Report Variables Requested
4,2,Cumulative Days of Simulation[],Month[]  ! When Monthly Report Variables Requested
5,1,Cumulative Days of Simulation[] ! When Run Period Report Variables Requested
6,1,Calendar Year of Simulation[] ! When Annual Report Variables Requested
141,1,ZONE_0599100000263539 IDEAL LOADS AIR SYSTEM,Zone Ideal Loads Supply Air Total Heating Energy [J] !Hourly
190,1,ZONE_0599100000263539 IDEAL LOADS AIR SYSTEM,Zone Ideal Loads Supply Air Total Cooling Energy [J] !Hourly
End of Data Dictionary
1,RUN PERIOD 1,  51.96,   4.45,   1.00,  -4.50
2,1, 1, 1, 0, 1, 0.00,60.00,Sunday
141,50857588.99163278
190,0.0
2,1, 1, 1, 0, 2, 0.00,60.00,Sunday
141,52315528.57051185
190,0.0
2,1, 1, 1, 0, 3, 0.00,60.00,Sunday
141,52346316.03924132
190,0.0
2,1, 1, 1, 0, 4, 0.00,60.00,Sunday
141,53446065.34049441
190,0.0
2,1, 1, 1, 0, 5, 0.00,60.00,Sunday
141,54245489.961569875
190,0.0
2,1, 1, 1, 0, 6, 0.00,60.00,Sunday
141,54447812.84974149
190,0.0
2,1, 1, 1, 0, 7, 0.00,60.00,Sunday
141,54726932.00819927
190,0.0
2,1, 1, 1, 0, 8, 0.00,60.00,Sunday
141,54810264.49975231
190,0.0
2,1, 1, 1, 0, 9, 0.00,60.00,Sunday
141,54923856.096179634
190,0.0
2,1, 1, 1, 0,10, 0.00,60.00,Sunday
141,54797597.04348553
190,0.0
2,1, 1, 1, 0,11, 0.00,60.00,Sunday
141,54142691.5866191
190,0.0
2,1, 1, 1, 0,12, 0.00,60.00,Sunday
141,52913184.22751423
190,0.0
2,1, 1, 1, 0,13, 0.00,60.00,Sunday
141,52300153.36212747
190,0.0
2,1, 1, 1, 0,14, 0.00,60.00,Sunday
141,51287726.28619226
190,0.0
2,1, 1, 1, 0,15, 0.00,60.00,Sunday
141,50419918.85151579
190,0.0
2,1, 1, 1, 0,16, 0.00,60.00,Sunday
141,50740910.31465088
190,0.0
2,1, 1, 1, 0,17, 0.00,60.00,Sunday
141,51174338.65826541
190,0.0
2,1, 1, 1, 0,18, 0.00,60.00,Sunday
141,51072883.817819856
190,0.0
2,1, 1, 1, 0,19, 0.00,60.00,Sunday
141,51014249.76964021
190,0.0
2,1, 1, 1, 0,20, 0.00,60.00,Sunday
141,50781672.10980422
190,0.0
2,1, 1, 1, 0,21, 0.00,60.00,Sunday
141,50545722.59809131
190,0.0
2,1, 1, 1, 0,22, 0.00,60.00,Sunday
141,50601100.498961546
190,0.0
2,1, 1, 1, 0,23, 0.00,60.00,Sunday
141,49636220.790141106
190,0.0
2,1, 1, 1, 0,24, 0.00,60.00,Sunday
141,48952298.84692112
190,0.0
2,2, 1, 2, 0, 1, 0.00,60.00,Monday
141,49137177.477957085
190,0.0
2,2, 1, 2, 0, 2, 0.00,60.00,Monday
141,48199865.79924515
190,0.0
2,2, 1, 2, 0, 3, 0.00,60.00,Monday
141,47477155.29172851
190,0.0
2,2, 1, 2, 0, 4, 0.00,60.00,Monday
141,46722307.02405712
190,0.0
2,2, 1, 2, 0, 5, 0.00,60.00,Monday
141,45023494.861694686
190,0.0
2,2, 1, 2, 0, 6, 0.00,60.00,Monday
141,44168089.130432576
190,0.0
2,2, 1, 2, 0, 7, 0.00,60.00,Monday
141,42813938.4551163
190,0.0
2,2, 1, 2, 0, 8, 0.00,60.00,Monday
141,41137367.835177846
190,0.0
2,2, 1, 2, 0, 9, 0.00,60.00,Monday
141,41418068.423172876
190,0.0
2,2, 1, 2, 0,10, 0.00,60.00,Monday
141,42324305.470874734
190,0.0
2,2, 1, 2, 0,11, 0.00,60.00,Monday
141,42827881.02699063
190,0.0
2,2, 1, 2, 0,12, 0.00,60.00,Monday
141,41893884.51918027
190,0.0
2,2, 1, 2, 0,13, 0.00,60.00,Monday
141,41408493.3627397
190,0.0
2,2, 1, 2, 0,14, 0.00,60.00,Monday
141,42091046.040709056
190,0.0
2,2, 1, 2, 0,15, 0.00,60.00,Monday
141,42403626.21103712
190,0.0
2,2, 1, 2, 0,16, 0.00,60.00,Monday
141,43176637.07425704
190,0.0
2,2, 1, 2, 0,17, 0.00,60.00,Monday
141,43980057.5241499
190,0.0
2,2, 1, 2, 0,18, 0.00,60.00,Monday
141,44227405.59420113
190,0.0
2,2, 1, 2, 0,19, 0.00,60.00,Monday
141,45182696.78692697
190,0.0
2,2, 1, 2, 0,20, 0.00,60.00,Monday
141,46100862.707766816
190,0.0
2,2, 1, 2, 0,21, 0.00,60.00,Monday
141,46421689.26409621
190,0.0
2,2, 1, 2, 0,22, 0.00,60.00,Monday
141,46619934.13304277
190,0.0
2,2, 1, 2, 0,23, 0.00,60.00,Monday
141,46888344.91637407
190,0.0
2,2, 1, 2, 0,24, 0.00,60.00,Monday
141,47179858.311676964
190,0.0
2,3, 1, 3, 0, 1, 0.00,60.00,Tuesday
141,47489604.43803097
190,0.0
2,3, 1, 3, 0, 2, 0.00,60.00,Tuesday
141,47716823.50748227
190,0.0
2,3, 1, 3, 0, 3, 0.00,60.00,Tuesday
141,47896626.32103109
190,0.0
2,3, 1, 3, 0, 4, 0.00,60.00,Tuesday
141,48179012.268771216
190,0.0
2,3, 1, 3, 0, 5, 0.00,60.00,Tuesday
141,49212642.62108645
190,0.0
2,3, 1, 3, 0, 6, 0.00,60.00,Tuesday
141,49855459.38583471
190,0.0
2,3, 1, 3, 0, 7, 0.00,60.00,Tuesday
141,50138198.084008664
190,0.0
2,3, 1, 3, 0, 8, 0.00,60.00,Tuesday
141,50019093.68875006
190,0.0
2,3, 1, 3, 0, 9, 0.00,60.00,Tuesday
141,50731614.341701746
190,0.0
2,3, 1, 3, 0,10, 0.00,60.00,Tuesday
141,51042305.14951338
190,0.0
2,3, 1, 3, 0,11, 0.00,60.00,Tuesday
141,51077181.07146367
190,0.0
2,3, 1, 3, 0,12, 0.00,60.00,Tuesday
141,51256813.77376689
190,0.0
2,3, 1, 3, 0,13, 0.00,60.00,Tuesday
141,52409570.35253306
190,0.0
2,3, 1, 3, 0,14, 0.00,60.00,Tuesday
141,53067913.69251263
190,0.0
2,3, 1, 3, 0,15, 0.00,60.00,Tuesday
141,52944880.392413124
190,0.0
2,3, 1, 3, 0,16, 0.00,60.00,Tuesday
141,52819476.357812665
190,0.0
2,3, 1, 3, 0,17, 0.00,60.00,Tuesday
141,52841463.29777752
190,0.0
2,3, 1, 3, 0,18, 0.00,60.00,Tuesday
141,52902412.39090256
190,0.0
2,3, 1, 3, 0,19, 0.00,60.00,Tuesday
141,52665529.3768602
190,0.0
2,3, 1, 3, 0,20, 0.00,60.00,Tuesday
141,51693396.98616959
190,0.0
2,3, 1, 3, 0,21, 0.00,60.00,Tuesday
141,49175819.53531595
190,0.0
2,3, 1, 3, 0,22, 0.00,60.00,Tuesday
141,47876575.32260665
190,0.0
2,3, 1, 3, 0,23, 0.00,60.00,Tuesday
141,48922118.47784207
190,0.0
2,3, 1, 3, 0,24, 0.00,60.00,Tuesday
141,50647458.27797295
190,0.0
2,4, 1, 4, 0, 1, 0.00,60.00,Wednesday
141,51543563.53991935
190,0.0
2,4, 1, 4, 0, 2, 0.00,60.00,Wednesday
141,51519589.49740134
190,0.0
2,4, 1, 4, 0, 3, 0.00,60.00,Wednesday
141,51422921.68442048
190,0.0
2,4, 1, 4, 0, 4, 0.00,60.00,Wednesday
141,51864962.5623588
190,0.0
2,4, 1, 4, 0, 5, 0.00,60.00,Wednesday
141,53095969.09878244
190,0.0
2,4, 1, 4, 0, 6, 0.00,60.00,Wednesday
141,52930801.25546155
190,0.0
2,4, 1, 4, 0, 7, 0.00,60.00,Wednesday
141,52961024.782050304
190,0.0
2,4, 1, 4, 0, 8, 0.00,60.00,Wednesday
141,53448295.401883304
190,0.0
2,4, 1, 4, 0, 9, 0.00,60.00,Wednesday
141,53795704.0353796
190,0.0
2,4, 1, 4, 0,10, 0.00,60.00,Wednesday
141,54075587.57787806
190,0.0
2,4, 1, 4, 0,11, 0.00,60.00,Wednesday
141,52168598.212837264
190,0.0
2,4, 1, 4, 0,12, 0.00,60.00,Wednesday
141,48956485.49282552
190,0.0
2,4, 1, 4, 0,13, 0.00,60.00,Wednesday
141,48193711.4309443
190,0.0
2,4, 1, 4, 0,14, 0.00,60.00,Wednesday
141,48170865.19868802
190,0.0
2,4, 1, 4, 0,15, 0.00,60.00,Wednesday
141,47879598.89152755
190,0.0
2,4, 1, 4, 0,16, 0.00,60.00,Wednesday
141,49197115.87379893
190,0.0
2,4, 1, 4, 0,17, 0.00,60.00,Wednesday
141,51546664.017357916
190,0.0
2,4, 1, 4, 0,18, 0.00,60.00,Wednesday
141,53556114.71680719
190,0.0
2,4, 1, 4, 0,19, 0.00,60.00,Wednesday
141,55621600.89526136
190,0.0
2,4, 1, 4, 0,20, 0.00,60.00,Wednesday
141,56724708.458903104
190,0.0
2,4, 1, 4, 0,21, 0.00,60.00,Wednesday
141,57295964.73034947
190,0.0
2,4, 1, 4, 0,22, 0.00,60.00,Wednesday
141,58488524.24410692
190,0.0
2,4, 1, 4, 0,23, 0.00,60.00,Wednesday
141,58264334.78903012
190,0.0
2,4, 1, 4, 0,24, 0.00,60.00,Wednesday
141,57791307.765835874
190,0.0
2,5, 1, 5, 0, 1, 0.00,60.00,Thursday
141,58392376.71019894
190,0.0
2,5, 1, 5, 0, 2, 0.00,60.00,Thursday
141,58188269.70474218
190,0.0
2,5, 1, 5, 0, 3, 0.00,60.00,Thursday
141,57970892.5580665
190,0.0
2,5, 1, 5, 0, 4, 0.00,60.00,Thursday
141,58314853.67118657
190,0.0
2,5, 1, 5, 0, 5, 0.00,60.00,Thursday
141,57915958.82414738
190,0.0
2,5, 1, 5, 0, 6, 0.00,60.00,Thursday
141,57791928.154385574
190,0.0
2,5, 1, 5, 0, 7, 0.00,60.00,Thursday
141,58242672.04285097
190,0.0
2,5, 1, 5, 0, 8, 0.00,60.00,Thursday
141,58595976.6506236
190,0.0
2,5, 1, 5, 0, 9, 0.00,60.00,Thursday
141,58688571.03067271
190,0.0
2,5, 1, 5, 0,10, 0.00,60.00,Thursday
141,59268578.87933867
190,0.0
2,5, 1, 5, 0,11, 0.00,60.00,Thursday
141,59018991.616011515
190,0.0
2,5, 1, 5, 0,12, 0.00,60.00,Thursday
141,57481697.15443197
190,0.0
2,5, 1, 5, 0,13, 0.00,60.00,Thursday
141,56786328.8323977
190,0.0
2,5, 1, 5, 0,14, 0.00,60.00,Thursday
141,55471281.13532254
190,0.0
2,5, 1, 5, 0,15, 0.00,60.00,Thursday
141,54279546.84308936
190,0.0
2,5, 1, 5, 0,16, 0.00,60.00,Thursday
141,54499133.953471094
190,0.0
2,5, 1, 5, 0,17, 0.00,60.00,Thursday
141,53872711.71051368
190,0.0
2,5, 1, 5, 0,18, 0.00,60.00,Thursday
141,52995222.80808323
190,0.0
2,5, 1, 5, 0,19, 0.00,60.00,Thursday
141,52857865.967923105
190,0.0
2,5, 1, 5, 0,20, 0.00,60.00,Thursday
141,52487654.89022612
190,0.0
2,5, 1, 5, 0,21, 0.00,60.00,Thursday
141,52073710.44951297
190,0.0
2,5, 1, 5, 0,22, 0.00,60.00,Thursday
141,51888905.485795304
190,0.0
2,5, 1, 5, 0,23, 0.00,60.00,Thursday
141,51929485.89334546
190,0.0
2,5, 1, 5, 0,24, 0.00,60.00,Thursday
141,52019461.19148792
190,0.0
2,6, 1, 6, 0, 1, 0.00,60.00,Friday
141,52051215.573235214
190,0.0
2,6, 1, 6, 0, 2, 0.00,60.00,Friday
141,52090039.61107601
190,0.0
2,6, 1, 6, 0, 3, 0.00,60.00,Friday
141,52936652.28092056
190,0.0
2,6, 1, 6, 0, 4, 0.00,60.00,Friday
141,53766337.60622096
190,0.0
2,6, 1, 6, 0, 5, 0.00,60.00,Friday
141,54176784.84809914
190,0.0
2,6, 1, 6, 0, 6, 0.00,60.00,Friday
141,54715206.47069569
190,0.0
2,6, 1, 6, 0, 7, 0.00,60.00,Friday
141,55561869.88767453
190,0.0
2,6, 1, 6, 0, 8, 0.00,60.00,Friday
141,56397369.46790612
190,0.0
2,6, 1, 6, 0, 9, 0.00,60.00,Friday
141,57438414.439845845
190,0.0
2,6, 1, 6, 0,10, 0.00,60.00,Friday
141,58126536.466354504
190,0.0
2,6, 1, 6, 0,11, 0.00,60.00,Friday
141,57627642.21365276
190,0.0
2,6, 1, 6, 0,12, 0.00,60.00,Friday
141,56778810.09865335
190,0.0
2,6, 1, 6, 0,13, 0.00,60.00,Friday
141,56425014.081424125
190,0.0
2,6, 1, 6, 0,14, 0.00,60.00,Friday
141,56274010.50969009
190,0.0
2,6, 1, 6, 0,15, 0.00,60.00,Friday
141,55946007.446565904
190,0.0
2,6, 1, 6, 0,16, 0.00,60.00,Friday
141,55170320.89340214
190,0.0
2,6, 1, 6, 0,17, 0.00,60.00,Friday
141,54331697.46064825
190,0.0
2,6, 1, 6, 0,18, 0.00,60.00,Friday
141,53854682.36593915
190,0.0
2,6, 1, 6, 0,19, 0.00,60.00,Friday
141,53380628.548933186
190,0.0
2,6, 1, 6, 0,20, 0.00,60.00,Friday
141,52467284.40302216
190,0.0
2,6, 1, 6, 0,21, 0.00,60.00,Friday
141,50314530.55217056
190,0.0
2,6, 1, 6, 0,22, 0.00,60.00,Friday
141,47778857.28692055
190,0.0
2,6, 1, 6, 0,23, 0.00,60.00,Friday
141,46718381.41205792
190,0.0
2,6, 1, 6, 0,24, 0.00,60.00,Friday
141,47072238.117468335
190,0.0
2,7, 1, 7, 0, 1, 0.00,60.00,Saturday
141,49228277.87781351
190,0.0
2,7, 1, 7, 0, 2, 0.00,60.00,Saturday
141,51332140.02524522
190,0.0
2,7, 1, 7, 0, 3, 0.00,60.00,Saturday
141,50996078.400600255
190,0.0
2,7, 1, 7, 0, 4, 0.00,60.00,Saturday
141,51135303.0618263
190,0.0
2,7, 1, 7, 0, 5, 0.00,60.00,Saturday
141,52566890.71530082
190,0.0
2,7, 1, 7, 0, 6, 0.00,60.00,Saturday
141,53697770.38250689
190,0.0
2,7, 1, 7, 0, 7, 0.00,60.00,Saturday
141,54375516.025225565
190,0.0
2,7, 1, 7, 0, 8, 0.00,60.00,Saturday
141,54740368.13421843
190,0.0
2,7, 1, 7, 0, 9, 0.00,60.00,Saturday
141,53999003.197749816
190,0.0
2,7, 1, 7, 0,10, 0.00,60.00,Saturday
141,53376624.77145624
190,0.0
2,7, 1, 7, 0,11, 0.00,60.00,Saturday
141,51370869.755189165
190,0.0
2,7, 1, 7, 0,12, 0.00,60.00,Saturday
141,49309368.78065931
190,0.0
2,7, 1, 7, 0,13, 0.00,60.00,Saturday
141,47697520.93720035
190,0.0
2,7, 1, 7, 0,14, 0.00,60.00,Saturday
141,46667713.42282782
190,0.0
2,7, 1, 7, 0,15, 0.00,60.00,Saturday
141,46595491.08608063
190,0.0
2,7, 1, 7, 0,16, 0.00,60.00,Saturday
141,46774838.43812429
190,0.0
2,7, 1, 7, 0,17, 0.00,60.00,Saturday
141,46781198.437067784
190,0.0
2,7, 1, 7, 0,18, 0.00,60.00,Saturday
141,47264794.08624236
190,0.0
2,7, 1, 7, 0,19, 0.00,60.00,Saturday
141,47784974.645858206
190,0.0
2,7, 1, 7, 0,20, 0.00,60.00,Saturday
141,48406754.4856548
190,0.0
2,7, 1, 7, 0,21, 0.00,60.00,Saturday
141,48891676.33470283
190,0.0
2,7, 1, 7, 0,22, 0.00,60.00,Saturday
141,48844333.168976545
190,0.0
2,7, 1, 7, 0,23, 0.00,60.00,Saturday
141,48983188.00875511
190,0.0
2,7, 1, 7, 0,24, 0.00,60.00,Saturday
141,49029377.60977517
190,0.0
2,8, 1, 8, 0, 1, 0.00,60.00,Sunday
141,48607939.6476958
190,0.0
2,8, 1, 8, 0, 2, 0.00,60.00,Sunday
141,48167644.994242735
190,0.0
2,8, 1, 8, 0, 3, 0.00,60.00,Sunday
141,47845415.50648359
190,0.0
2,8, 1, 8, 0, 4, 0.00,60.00,Sunday
141,47235444.38885748
190,0.0
2,8, 1, 8, 0, 5, 0.00,60.00,Sunday
141,46372101.0796143
190,0.0
2,8, 1, 8, 0, 6, 0.00,60.00,Sunday
141,45723525.00006341
190,0.0
2,8, 1, 8, 0, 7, 0.00,60.00,Sunday
141,45196849.79621054
190,0.0
2,8, 1, 8, 0, 8, 0.00,60.00,Sunday
141,44683274.9207973
190,0.0
2,8, 1, 8, 0, 9, 0.00,60.00,Sunday
141,44069431.11151061
190,0.0
2,8, 1, 8, 0,10, 0.00,60.00,Sunday
141,43802296.808365785
190,0.0
2,8, 1, 8, 0,11, 0.00,60.00,Sunday
141,43530116.66260992
190,0.0
2,8, 1, 8, 0,12, 0.00,60.00,Sunday
141,43487346.75097261
190,0.0
2,8, 1, 8, 0,13, 0.00,60.00,Sunday
141,43182189.497037746
190,0.0
2,8, 1, 8, 0,14, 0.00,60.00,Sunday
141,43119382.16735359
190,0.0
2,8, 1, 8, 0,15, 0.00,60.00,Sunday
141,44236031.72436329
190,0.0
2,8, 1, 8, 0,16, 0.00,60.00,Sunday
141,45016750.22861363
190,0.0
2,8, 1, 8, 0,17, 0.00,60.00,Sunday
141,44943356.35866285
190,0.0
2,8, 1, 8, 0,18, 0.00,60.00,Sunday
141,45300378.59397292
190,0.0
2,8, 1, 8, 0,19, 0.00,60.00,Sunday
141,45077411.29567188
190,0.0
2,8, 1, 8, 0,20, 0.00,60.00,Sunday
141,44331844.672663376
190,0.0
2,8, 1, 8, 0,21, 0.00,60.00,Sunday
141,43830447.13717743
190,0.0
2,8, 1, 8, 0,22, 0.00,60.00,Sunday
141,44077814.143000565
190,0.0
2,8, 1, 8, 0,23, 0.00,60.00,Sunday
141,44321919.43713729
190,0.0
2,8, 1, 8, 0,24, 0.00,60.00,Sunday
141,44880742.402572535
190,0.0
2,9, 1, 9, 0, 1, 0.00,60.00,Monday
141,45058666.593378246
190,0.0
2,9, 1, 9, 0, 2, 0.00,60.00,Monday
141,45204471.97575712
190,0.0
2,9, 1, 9, 0, 3, 0.00,60.00,Monday
141,45189199.33768444
190,0.0
2,9, 1, 9, 0, 4, 0.00,60.00,Monday
141,44997999.801840186
190,0.0
2,9, 1, 9, 0, 5, 0.00,60.00,Monday
141,44431325.131588325
190,0.0
2,9, 1, 9, 0, 6, 0.00,60.00,Monday
141,43827520.763242155
190,0.0
2,9, 1, 9, 0, 7, 0.00,60.00,Monday
141,43371975.69952434
190,0.0
2,9, 1, 9, 0, 8, 0.00,60.00,Monday
141,43095630.90169143
190,0.0
2,9, 1, 9, 0, 9, 0.00,60.00,Monday
141,42337925.551258326
190,0.0
2,9, 1, 9, 0,10, 0.00,60.00,Monday
141,40549701.86601977
190,0.0
2,9, 1, 9, 0,11, 0.00,60.00,Monday
141,39008886.94872164
190,0.0
2,9, 1, 9, 0,12, 0.00,60.00,Monday
141,38106003.68197659
190,0.0
2,9, 1, 9, 0,13, 0.00,60.00,Monday
141,37305271.87895767
190,0.0
2,9, 1, 9, 0,14, 0.00,60.00,Monday
141,36635172.55994664
190,0.0
2,9, 1, 9, 0,15, 0.00,60.00,Monday
141,36243967.9646806
190,0.0
2,9, 1, 9, 0,16, 0.00,60.00,Monday
141,36349446.61436275
190,0.0
2,9, 1, 9, 0,17, 0.00,60.00,Monday
141,37285188.912555665
190,0.0
2,9, 1, 9, 0,18, 0.00,60.00,Monday
141,38186645.20310322
190,0.0
2,9, 1, 9, 0,19, 0.00,60.00,Monday
141,37942727.869931005
190,0.0
2,9, 1, 9, 0,20, 0.00,60.00,Monday
141,36287607.04640244
190,0.0
2,9, 1, 9, 0,21, 0.00,60.00,Monday
141,34627488.15626568
190,0.0
2,9, 1, 9, 0,22, 0.00,60.00,Monday
141,33550957.888809435
190,0.0
2,9, 1, 9, 0,23, 0.00,60.00,Monday
141,33205769.914498392
190,0.0
2,9, 1, 9, 0,24, 0.00,60.00,Monday
141,33083283.644827444
190,0.0
2,10, 1,10, 0, 1, 0.00,60.00,Tuesday
141,33243310.53041686
190,0.0
2,10, 1,10, 0, 2, 0.00,60.00,Tuesday
141,33243421.44728069
190,0.0
2,10, 1,10, 0, 3, 0.00,60.00,Tuesday
141,33001063.892940525
190,0.0
2,10, 1,10, 0, 4, 0.00,60.00,Tuesday
141,33191921.744526178
190,0.0
2,10, 1,10, 0, 5, 0.00,60.00,Tuesday
141,33098359.148403484
190,0.0
2,10, 1,10, 0, 6, 0.00,60.00,Tuesday
141,32911793.50249253
190,0.0
2,10, 1,10, 0, 7, 0.00,60.00,Tuesday
141,32768013.852357745
190,0.0
2,10, 1,10, 0, 8, 0.00,60.00,Tuesday
141,32426718.62412513
190,0.0
2,10, 1,10, 0, 9, 0.00,60.00,Tuesday
141,32041100.679258518
190,0.0
2,10, 1,10, 0,10, 0.00,60.00,Tuesday
141,31592543.48601258
190,0.0
2,10, 1,10, 0,11, 0.00,60.00,Tuesday
141,31012357.70817196
190,0.0
2,10, 1,10, 0,12, 0.00,60.00,Tuesday
141,30373583.30653684
190,0.0
2,10, 1,10, 0,13, 0.00,60.00,Tuesday
141,30194720.074291974
190,0.0
2,10, 1,10, 0,14, 0.00,60.00,Tuesday
141,32111797.09042264
190,0.0
2,10, 1,10, 0,15, 0.00,60.00,Tuesday
141,33670653.21835554
190,0.0
2,10, 1,10, 0,16, 0.00,60.00,Tuesday
141,34659048.18489161
190,0.0
2,10, 1,10, 0,17, 0.00,60.00,Tuesday
141,35753593.05772535
190,0.0
2,10, 1,10, 0,18, 0.00,60.00,Tuesday
141,37234998.69964336
190,0.0
2,10, 1,10, 0,19, 0.00,60.00,Tuesday
141,38199612.303108625
190,0.0
2,10, 1,10, 0,20, 0.00,60.00,Tuesday
141,39119378.12630911
190,0.0
2,10, 1,10, 0,21, 0.00,60.00,Tuesday
141,40475234.75175448
190,0.0
2,10, 1,10, 0,22, 0.00,60.00,Tuesday
141,41565301.32443291
190,0.0
2,10, 1,10, 0,23, 0.00,60.00,Tuesday
141,41939235.28352532
190,0.0
2,10, 1,10, 0,24, 0.00,60.00,Tuesday
141,43196268.51893434
190,0.0
2,11, 1,11, 0, 1, 0.00,60.00,Wednesday
141,44005516.96017268
190,0.0
2,11, 1,11, 0, 2, 0.00,60.00,Wednesday
141,44802936.87618413
190,0.0
2,11, 1,11, 0, 3, 0.00,60.00,Wednesday
141,45778210.31465483
190,0.0
2,11, 1,11, 0, 4, 0.00,60.00,Wednesday
141,45950135.62234096
190,0.0
2,11, 1,11, 0, 5, 0.00,60.00,Wednesday
141,46137405.79103513
190,0.0
2,11, 1,11, 0, 6, 0.00,60.00,Wednesday
141,46411437.19640167
190,0.0
2,11, 1,11, 0, 7, 0.00,60.00,Wednesday
141,46827732.6778155
190,0.0
2,11, 1,11, 0, 8, 0.00,60.00,Wednesday
141,47194996.37228849
190,0.0
2,11, 1,11, 0, 9, 0.00,60.00,Wednesday
141,47284055.769640766
190,0.0
2,11, 1,11, 0,10, 0.00,60.00,Wednesday
141,47180303.554597974
190,0.0
2,11, 1,11, 0,11, 0.00,60.00,Wednesday
141,46875623.6795174
190,0.0
2,11, 1,11, 0,12, 0.00,60.00,Wednesday
141,46245612.91143514
190,0.0
2,11, 1,11, 0,13, 0.00,60.00,Wednesday
141,45647635.489929795
190,0.0
2,11, 1,11, 0,14, 0.00,60.00,Wednesday
141,45207817.24581482
190,0.0
2,11, 1,11, 0,15, 0.00,60.00,Wednesday
141,44812094.14176262
190,0.0
2,11, 1,11, 0,16, 0.00,60.00,Wednesday
141,44406718.121178344
190,0.0
2,11, 1,11, 0,17, 0.00,60.00,Wednesday
141,43585857.20188354
190,0.0
2,11, 1,11, 0,18, 0.00,60.00,Wednesday
141,42803754.32271741
190,0.0
2,11, 1,11, 0,19, 0.00,60.00,Wednesday
141,42202989.080010764
190,0.0
2,11, 1,11, 0,20, 0.00,60.00,Wednesday
141,41910207.02315278
190,0.0
2,11, 1,11, 0,21, 0.00,60.00,Wednesday
141,41719882.34348637
190,0.0
2,11, 1,11, 0,22, 0.00,60.00,Wednesday
141,40883118.69393452
190,0.0
2,11, 1,11, 0,23, 0.00,60.00,Wednesday
141,40252992.76812459
190,0.0
2,11, 1,11, 0,24, 0.00,60.00,Wednesday
141,40244515.51603301
190,0.0
2,12, 1,12, 0, 1, 0.00,60.00,Thursday
141,40466357.11767304
190,0.0
2,12, 1,12, 0, 2, 0.00,60.00,Thursday
141,40457657.25493947
190,0.0
2,12, 1,12, 0, 3, 0.00,60.00,Thursday
141,40245263.24788222
190,0.0
2,12, 1,12, 0, 4, 0.00,60.00,Thursday
141,40233141.70644252
190,0.0
2,12, 1,12, 0, 5, 0.00,60.00,Thursday
141,40456259.667931296
190,0.0
2,12, 1,12, 0, 6, 0.00,60.00,Thursday
141,41026813.3171925
190,0.0
2,12, 1,12, 0, 7, 0.00,60.00,Thursday
141,41326272.73708259
190,0.0
2,12, 1,12, 0, 8, 0.00,60.00,Thursday
141,41385945.24157188
190,0.0
2,12, 1,12, 0, 9, 0.00,60.00,Thursday
141,40952908.98923973
190,0.0
2,12, 1,12, 0,10, 0.00,60.00,Thursday
141,40032403.226271436
190,0.0
2,12, 1,12, 0,11, 0.00,60.00,Thursday
141,39330089.28336212
190,0.0
2,12, 1,12, 0,12, 0.00,60.00,Thursday
141,38929850.60713118
190,0.0
2,12, 1,12, 0,13, 0.00,60.00,Thursday
141,38428764.58730242
190,0.0
2,12, 1,12, 0,14, 0.00,60.00,Thursday
141,37911855.63483371
190,0.0
2,12, 1,12, 0,15, 0.00,60.00,Thursday
141,37947205.17513268
190,0.0
2,12, 1,12, 0,16, 0.00,60.00,Thursday
141,38224957.20883091
190,0.0
2,12, 1,12, 0,17, 0.00,60.00,Thursday
141,39362723.07729554
190,0.0
2,12, 1,12, 0,18, 0.00,60.00,Thursday
141,40030742.0668575
190,0.0
2,12, 1,12, 0,19, 0.00,60.00,Thursday
141,39789011.70546235
190,0.0
2,12, 1,12, 0,20, 0.00,60.00,Thursday
141,39195200.393193364
190,0.0
2,12, 1,12, 0,21, 0.00,60.00,Thursday
141,38951309.192153946
190,0.0
2,12, 1,12, 0,22, 0.00,60.00,Thursday
141,38517877.69634579
190,0.0
2,12, 1,12, 0,23, 0.00,60.00,Thursday
141,38303289.47271556
190,0.0
2,12, 1,12, 0,24, 0.00,60.00,Thursday
141,38236352.60721538
190,0.0
2,13, 1,13, 0, 1, 0.00,60.00,Friday
141,37841396.63058422
190,0.0
2,13, 1,13, 0, 2, 0.00,60.00,Friday
141,37447946.58313769
190,0.0
2,13, 1,13, 0, 3, 0.00,60.00,Friday
141,36920145.075289346
190,0.0
2,13, 1,13, 0, 4, 0.00,60.00,Friday
141,36528420.27322334
190,0.0
2,13, 1,13, 0, 5, 0.00,60.00,Friday
141,36333965.039701805
190,0.0
2,13, 1,13, 0, 6, 0.00,60.00,Friday
141,36233398.22100918
190,0.0
2,13, 1,13, 0, 7, 0.00,60.00,Friday
141,36305460.30890834
190,0.0
2,13, 1,13, 0, 8, 0.00,60.00,Friday
141,36183740.58746956
190,0.0
2,13, 1,13, 0, 9, 0.00,60.00,Friday
141,35784766.45877322
190,0.0
2,13, 1,13, 0,10, 0.00,60.00,Friday
141,36358496.13865212
190,0.0
2,13, 1,13, 0,11, 0.00,60.00,Friday
141,37041321.93752946
190,0.0
2,13, 1,13, 0,12, 0.00,60.00,Friday
141,37040099.782691866
190,0.0
2,13, 1,13, 0,13, 0.00,60.00,Friday
141,37118327.6469483
190,0.0
2,13, 1,13, 0,14, 0.00,60.00,Friday
141,37613286.339703225
190,0.0
2,13, 1,13, 0,15, 0.00,60.00,Friday
141,37924672.225397184
190,0.0
2,13, 1,13, 0,16, 0.00,60.00,Friday
141,37907999.60186424
190,0.0
2,13, 1,13, 0,17, 0.00,60.00,Friday
141,37824093.337622985
190,0.0
2,13, 1,13, 0,18, 0.00,60.00,Friday
141,37792707.15669261
190,0.0
2,13, 1,13, 0,19, 0.00,60.00,Friday
141,38256902.875216834
190,0.0
2,13, 1,13, 0,20, 0.00,60.00,Friday
141,39062081.98704776
190,0.0
2,13, 1,13, 0,21, 0.00,60.00,Friday
141,39815755.06679512
190,0.0
2,13, 1,13, 0,22, 0.00,60.00,Friday
141,40390127.036510795
190,0.0
2,13, 1,13, 0,23, 0.00,60.00,Friday
141,40443778.96818999
190,0.0
2,13, 1,13, 0,24, 0.00,60.00,Friday
141,42591571.00353222
190,0.0
2,14, 1,14, 0, 1, 0.00,60.00,Saturday
141,44186398.7913527
190,0.0
2,14, 1,14, 0, 2, 0.00,60.00,Saturday
141,43953024.793913126
190,0.0
2,14, 1,14, 0, 3, 0.00,60.00,Saturday
141,44328869.98676616
190,0.0
2,14, 1,14, 0, 4, 0.00,60.00,Saturday
141,44361894.17781258
190,0.0
2,14, 1,14, 0, 5, 0.00,60.00,Saturday
141,44511369.70230001
190,0.0
2,14, 1,14, 0, 6, 0.00,60.00,Saturday
141,46075317.37081554
190,0.0
2,14, 1,14, 0, 7, 0.00,60.00,Saturday
141,47343358.56529776
190,0.0
2,14, 1,14, 0, 8, 0.00,60.00,Saturday
141,47314738.00806946
190,0.0
2,14, 1,14, 0, 9, 0.00,60.00,Saturday
141,48214072.425267
190,0.0
2,14, 1,14, 0,10, 0.00,60.00,Saturday
141,49332069.52872159
190,0.0
2,14, 1,14, 0,11, 0.00,60.00,Saturday
141,49398523.11734531
190,0.0
2,14, 1,14, 0,12, 0.00,60.00,Saturday
141,49256311.25772942
190,0.0
2,14, 1,14, 0,13, 0.00,60.00,Saturday
141,48694845.75279561
190,0.0
2,14, 1,14, 0,14, 0.00,60.00,Saturday
141,47227860.54872288
190,0.0
2,14, 1,14, 0,15, 0.00,60.00,Saturday
141,47048433.48704215
190,0.0
2,14, 1,14, 0,16, 0.00,60.00,Saturday
141,47325093.9740314
190,0.0
2,14, 1,14, 0,17, 0.00,60.00,Saturday
141,47826952.776052825
190,0.0
2,14, 1,14, 0,18, 0.00,60.00,Saturday
141,48941483.874241784
190,0.0
2,14, 1,14, 0,19, 0.00,60.00,Saturday
141,49028768.76213908
190,0.0
2,14, 1,14, 0,20, 0.00,60.00,Saturday
141,49371974.967907175
190,0.0
2,14, 1,14, 0,21, 0.00,60.00,Saturday
141,49421209.83125251
190,0.0
2,14, 1,14, 0,22, 0.00,60.00,Saturday
141,49332352.59702675
190,0.0
2,14, 1,14, 0,23, 0.00,60.00,Saturday
141,49374409.84567563
190,0.0
2,14, 1,14, 0,24, 0.00,60.00,Saturday
141,49575461.64361723
190,0.0
2,15, 1,15, 0, 1, 0.00,60.00,Sunday
141,49150577.44305364
190,0.0
2,15, 1,15, 0, 2, 0.00,60.00,Sunday
141,47693956.488597006
190,0.0
2,15, 1,15, 0, 3, 0.00,60.00,Sunday
141,47037538.41879233
190,0.0
2,15, 1,15, 0, 4, 0.00,60.00,Sunday
141,46535964.29058894
190,0.0
2,15, 1,15, 0, 5, 0.00,60.00,Sunday
141,45444723.88864793
190,0.0
2,15, 1,15, 0, 6, 0.00,60.00,Sunday
141,44201905.857779644
190,0.0
2,15, 1,15, 0, 7, 0.00,60.00,Sunday
141,42891709.75737186
190,0.0
2,15, 1,15, 0, 8, 0.00,60.00,Sunday
141,41891361.17139138
190,0.0
2,15, 1,15, 0, 9, 0.00,60.00,Sunday
141,41010512.230608545
190,0.0
2,15, 1,15, 0,10, 0.00,60.00,Sunday
141,40561485.85444395
190,0.0
2,15, 1,15, 0,11, 0.00,60.00,Sunday
141,40745982.89175667
190,0.0
2,15, 1,15, 0,12, 0.00,60.00,Sunday
141,41840205.96900801
190,0.0
2,15, 1,15, 0,13, 0.00,60.00,Sunday
141,42529412.46728029
190,0.0
2,15, 1,15, 0,14, 0.00,60.00,Sunday
141,42602575.220707655
190,0.0
2,15, 1,15, 0,15, 0.00,60.00,Sunday
141,42482219.08863333
190,0.0
2,15, 1,15, 0,16, 0.00,60.00,Sunday
141,41895226.34802848
190,0.0
2,15, 1,15, 0,17, 0.00,60.00,Sunday
141,41503406.1217916
190,0.0
2,15, 1,15, 0,18, 0.00,60.00,Sunday
141,41508887.436208904
190,0.0
2,15, 1,15, 0,19, 0.00,60.00,Sunday
141,41675731.39230386
190,0.0
2,15, 1,15, 0,20, 0.00,60.00,Sunday
141,41915955.19250352
190,0.0
2,15, 1,15, 0,21, 0.00,60.00,Sunday
141,42564259.67694641
190,0.0
2,15, 1,15, 0,22, 0.00,60.00,Sunday
141,42879857.78885659
190,0.0
2,15, 1,15, 0,23, 0.00,60.00,Sunday
141,42979664.23895116
190,0.0
2,15, 1,15, 0,24, 0.00,60.00,Sunday
141,43274954.475900665
190,0.0
2,16, 1,16, 0, 1, 0.00,60.00,Monday
141,44084869.40114829
190,0.0
2,16, 1,16, 0, 2, 0.00,60.00,Monday
141,44885596.61606466
190,0.0
2,16, 1,16, 0, 3, 0.00,60.00,Monday
141,45433441.29762016
190,0.0
2,16, 1,16, 0, 4, 0.00,60.00,Monday
141,45868109.15153328
190,0.0
2,16, 1,16, 0, 5, 0.00,60.00,Monday
141,46385784.3121629
190,0.0
2,16, 1,16, 0, 6, 0.00,60.00,Monday
141,46815239.86356401
190,0.0
2,16, 1,16, 0, 7, 0.00,60.00,Monday
141,47559807.37511896
190,0.0
2,16, 1,16, 0, 8, 0.00,60.00,Monday
141,48251843.388991505
190,0.0
2,16, 1,16, 0, 9, 0.00,60.00,Monday
141,48584361.15966287
190,0.0
2,16, 1,16, 0,10, 0.00,60.00,Monday
141,48660859.220879406
190,0.0
2,16, 1,16, 0,11, 0.00,60.00,Monday
141,47350943.52067307
190,0.0
2,16, 1,16, 0,12, 0.00,60.00,Monday
141,46164851.53219784
190,0.0
2,16, 1,16, 0,13, 0.00,60.00,Monday
141,45146265.91749062
190,0.0
2,16, 1,16, 0,14, 0.00,60.00,Monday
141,44357433.12463143
190,0.0
2,16, 1,16, 0,15, 0.00,60.00,Monday
141,44154272.86518654
190,0.0
2,16, 1,16, 0,16, 0.00,60.00,Monday
141,44376397.44744065
190,0.0
2,16, 1,16, 0,17, 0.00,60.00,Monday
141,45067497.25850193
190,0.0
2,16, 1,16, 0,18, 0.00,60.00,Monday
141,46409078.759191476
190,0.0
2,16, 1,16, 0,19, 0.00,60.00,Monday
141,47796868.56847804
190,0.0
2,16, 1,16, 0,20, 0.00,60.00,Monday
141,48477837.566037856
190,0.0
2,16, 1,16, 0,21, 0.00,60.00,Monday
141,49003093.11557933
190,0.0
2,16, 1,16, 0,22, 0.00,60.00,Monday
141,49480287.464169554
190,0.0
2,16, 1,16, 0,23, 0.00,60.00,Monday
141,50216542.41647936
190,0.0
2,16, 1,16, 0,24, 0.00,60.00,Monday
141,50366752.77677783
190,0.0
2,17, 1,17, 0, 1, 0.00,60.00,Tuesday
141,50617951.977837294
190,0.0
2,17, 1,17, 0, 2, 0.00,60.00,Tuesday
141,51650618.378662616
190,0.0
2,17, 1,17, 0, 3, 0.00,60.00,Tuesday
141,52619092.92071257
190,0.0
2,17, 1,17, 0, 4, 0.00,60.00,Tuesday
141,53513499.378542334
190,0.0
2,17, 1,17, 0, 5, 0.00,60.00,Tuesday
141,54484986.736286715
190,0.0
2,17, 1,17, 0, 6, 0.00,60.00,Tuesday
141,55451383.62188844
190,0.0
2,17, 1,17, 0, 7, 0.00,60.00,Tuesday
141,56115113.50951141
190,0.0
2,17, 1,17, 0, 8, 0.00,60.00,Tuesday
141,56571999.525386944
190,0.0
2,17, 1,17, 0, 9, 0.00,60.00,Tuesday
141,56843057.647040255
190,0.0
2,17, 1,17, 0,10, 0.00,60.00,Tuesday
141,55485791.072424576
190,0.0
2,17, 1,17, 0,11, 0.00,60.00,Tuesday
141,53368536.14610642
190,0.0
2,17, 1,17, 0,12, 0.00,60.00,Tuesday
141,51503713.328989476
190,0.0
2,17, 1,17, 0,13, 0.00,60.00,Tuesday
141,50311500.12561346
190,0.0
2,17, 1,17, 0,14, 0.00,60.00,Tuesday
141,49816930.091348454
190,0.0
2,17, 1,17, 0,15, 0.00,60.00,Tuesday
141,49756611.72521436
190,0.0
2,17, 1,17, 0,16, 0.00,60.00,Tuesday
141,50303929.787461475
190,0.0
2,17, 1,17, 0,17, 0.00,60.00,Tuesday
141,50551396.12400359
190,0.0
2,17, 1,17, 0,18, 0.00,60.00,Tuesday
141,50014919.647786364
190,0.0
2,17, 1,17, 0,19, 0.00,60.00,Tuesday
141,49411634.81278355
190,0.0
2,17, 1,17, 0,20, 0.00,60.00,Tuesday
141,49251175.00519728
190,0.0
2,17, 1,17, 0,21, 0.00,60.00,Tuesday
141,49391012.313947506
190,0.0
2,17, 1,17, 0,22, 0.00,60.00,Tuesday
141,49362282.34439955
190,0.0
2,17, 1,17, 0,23, 0.00,60.00,Tuesday
141,49414820.13934208
190,0.0
2,17, 1,17, 0,24, 0.00,60.00,Tuesday
141,49973323.28998403
190,0.0
2,18, 1,18, 0, 1, 0.00,60.00,Wednesday
141,50420889.90223719
190,0.0
2,18, 1,18, 0, 2, 0.00,60.00,Wednesday
141,50876621.86060336
190,0.0
2,18, 1,18, 0, 3, 0.00,60.00,Wednesday
141,51259935.815637745
190,0.0
2,18, 1,18, 0, 4, 0.00,60.00,Wednesday
141,51556216.26852207
190,0.0
2,18, 1,18, 0, 5, 0.00,60.00,Wednesday
141,51899001.23636121
190,0.0
2,18, 1,18, 0, 6, 0.00,60.00,Wednesday
141,52293132.181015946
190,0.0
2,18, 1,18, 0, 7, 0.00,60.00,Wednesday
141,53298013.31311469
190,0.0
2,18, 1,18, 0, 8, 0.00,60.00,Wednesday
141,53705970.7168318
190,0.0
2,18, 1,18, 0, 9, 0.00,60.00,Wednesday
141,53969970.3666057
190,0.0
2,18, 1,18, 0,10, 0.00,60.00,Wednesday
141,54034453.29857186
190,0.0
2,18, 1,18, 0,11, 0.00,60.00,Wednesday
141,53361829.47695401
190,0.0
2,18, 1,18, 0,12, 0.00,60.00,Wednesday
141,52841303.76364938
190,0.0
2,18, 1,18, 0,13, 0.00,60.00,Wednesday
141,53136842.06916076
190,0.0
2,18, 1,18, 0,14, 0.00,60.00,Wednesday
141,53696581.62005092
190,0.0
2,18, 1,18, 0,15, 0.00,60.00,Wednesday
141,53943183.55237582
190,0.0
2,18, 1,18, 0,16, 0.00,60.00,Wednesday
141,54516603.1992082
190,0.0
2,18, 1,18, 0,17, 0.00,60.00,Wednesday
141,54751075.91571605
190,0.0
2,18, 1,18, 0,18, 0.00,60.00,Wednesday
141,54413158.64258491
190,0.0
2,18, 1,18, 0,19, 0.00,60.00,Wednesday
141,54247308.89765793
190,0.0
2,18, 1,18, 0,20, 0.00,60.00,Wednesday
141,54359041.58112207
190,0.0
2,18, 1,18, 0,21, 0.00,60.00,Wednesday
141,54454634.2008027
190,0.0
2,18, 1,18, 0,22, 0.00,60.00,Wednesday
141,54684300.43347299
190,0.0
2,18, 1,18, 0,23, 0.00,60.00,Wednesday
141,54850057.67852364
190,0.0
2,18, 1,18, 0,24, 0.00,60.00,Wednesday
141,55062505.91771889
190,0.0
2,19, 1,19, 0, 1, 0.00,60.00,Thursday
141,54815307.292888135
190,0.0
2,19, 1,19, 0, 2, 0.00,60.00,Thursday
141,54929260.8904512
190,0.0
2,19, 1,19, 0, 3, 0.00,60.00,Thursday
141,55607204.94423734
190,0.0