Program Version,EnergyPlus, Version 24.2.0-94a887817b, YMD=2025.04.24 13:21
1,5,Environment Title[],Latitude[deg],Longitude[deg],Time Zone[],Elevation[m]
2,8,Day of Simulation[],Month[],Day of Month[],DST Indicator[1=yes 0=no],Hour[],StartMinute[],EndMinute[],DayType
3,5,Cumulative Day of Simulation[],Month[],Day of Month[],DST Indicator[1=yes 0=no],DayType  ! When Daily Report Variables Requested
4,2,Cumulative Days of Simulation[],Month[]  ! When Monthly Report Variables Requested
5,1,Cumulative Days of Simulation[] ! When Run Period Report Variables Requested
6,1,Calendar Year of Simulation[] ! When Annual Report Variables Requested
141,1,ZONE_0599100000372997 IDEAL LOADS AIR SYSTEM,Zone Ideal Loads Supply Air Total Heating Energy [J] !Hourly
190,1,ZONE_0599100000372997 IDEAL LOADS AIR SYSTEM,Zone Ideal Loads Supply Air Total Cooling Energy [J] !Hourly
End of Data Dictionary
1,RUN PERIOD 1,  51.96,   4.45,   1.00,  -4.50
2,1, 1, 1, 0, 1, 0.00,60.00,Sunday
141,33485459.02709525
190,0.0
2,1, 1, 1, 0, 2, 0.00,60.00,Sunday
141,34615062.852724805
190,0.0
2,1, 1, 1, 0, 3, 0.00,60.00,Sunday
141,34605531.36908586
190,0.0
2,1, 1, 1, 0, 4, 0.00,60.00,Sunday
141,35438293.713945776
190,0.0
2,1, 1, 1, 0, 5, 0.00,60.00,Sunday
141,36004907.14121222
190,0.0
2,1, 1, 1, 0, 6, 0.00,60.00,Sunday
141,36066758.68233847
190,0.0
2,1, 1, 1, 0, 7, 0.00,60.00,Sunday
141,36166199.23084075
190,0.0
2,1, 1, 1, 0, 8, 0.00,60.00,Sunday
141,36087926.13101255
190,0.0
2,1, 1, 1, 0, 9, 0.00,60.00,Sunday
141,36018251.33681605
190,0.0
2,1, 1, 1, 0,10, 0.00,60.00,Sunday
141,35746656.72185134
190,0.0
2,1, 1, 1, 0,11, 0.00,60.00,Sunday
141,35050727.27227931
190,0.0
2,1, 1, 1, 0,12, 0.00,60.00,Sunday
141,33925893.16130285
190,0.0
2,1, 1, 1, 0,13, 0.00,60.00,Sunday
141,33373753.58974682
190,0.0
2,1, 1, 1, 0,14, 0.00,60.00,Sunday
141,32613129.216935508
190,0.0
2,1, 1, 1, 0,15, 0.00,60.00,Sunday
141,32086842.042409517
190,0.0
2,1, 1, 1, 0,16, 0.00,60.00,Sunday
141,32607731.417011008
190,0.0
2,1, 1, 1, 0,17, 0.00,60.00,Sunday
141,33263861.638518598
190,0.0
2,1, 1, 1, 0,18, 0.00,60.00,Sunday
141,33477213.70290418
190,0.0
2,1, 1, 1, 0,19, 0.00,60.00,Sunday
141,33665948.473971635
190,0.0
2,1, 1, 1, 0,20, 0.00,60.00,Sunday
141,33638614.012335464
190,0.0
2,1, 1, 1, 0,21, 0.00,60.00,Sunday
141,33537828.723664384
190,0.0
2,1, 1, 1, 0,22, 0.00,60.00,Sunday
141,33614376.181899056
190,0.0
2,1, 1, 1, 0,23, 0.00,60.00,Sunday
141,32835307.155305684
190,0.0
2,1, 1, 1, 0,24, 0.00,60.00,Sunday
141,32256591.23269136
190,0.0
2,2, 1, 2, 0, 1, 0.00,60.00,Monday
141,32362879.54805962
190,0.0
2,2, 1, 2, 0, 2, 0.00,60.00,Monday
141,31574395.474889368
190,0.0
2,2, 1, 2, 0, 3, 0.00,60.00,Monday
141,30968880.36211624
190,0.0
2,2, 1, 2, 0, 4, 0.00,60.00,Monday
141,30355616.00590971
190,0.0
2,2, 1, 2, 0, 5, 0.00,60.00,Monday
141,29013065.269964594
190,0.0
2,2, 1, 2, 0, 6, 0.00,60.00,Monday
141,28376567.74774462
190,0.0
2,2, 1, 2, 0, 7, 0.00,60.00,Monday
141,27377220.183393802
190,0.0
2,2, 1, 2, 0, 8, 0.00,60.00,Monday
141,26160462.163278244
190,0.0
2,2, 1, 2, 0, 9, 0.00,60.00,Monday
141,26551205.707836404
190,0.0
2,2, 1, 2, 0,10, 0.00,60.00,Monday
141,27480072.82561165
190,0.0
2,2, 1, 2, 0,11, 0.00,60.00,Monday
141,28118356.20355641
190,0.0
2,2, 1, 2, 0,12, 0.00,60.00,Monday
141,27614261.083154097
190,0.0
2,2, 1, 2, 0,13, 0.00,60.00,Monday
141,27416482.685945947
190,0.0
2,2, 1, 2, 0,14, 0.00,60.00,Monday
141,28065501.02422593
190,0.0
2,2, 1, 2, 0,15, 0.00,60.00,Monday
141,28344189.072727535
190,0.0
2,2, 1, 2, 0,16, 0.00,60.00,Monday
141,28938170.434040226
190,0.0
2,2, 1, 2, 0,17, 0.00,60.00,Monday
141,29511442.981036194
190,0.0
2,2, 1, 2, 0,18, 0.00,60.00,Monday
141,29599784.40454382
190,0.0
2,2, 1, 2, 0,19, 0.00,60.00,Monday
141,30220237.907755498
190,0.0
2,2, 1, 2, 0,20, 0.00,60.00,Monday
141,30782144.550602093
190,0.0
2,2, 1, 2, 0,21, 0.00,60.00,Monday
141,30844584.903572753
190,0.0
2,2, 1, 2, 0,22, 0.00,60.00,Monday
141,30789809.941422597
190,0.0
2,2, 1, 2, 0,23, 0.00,60.00,Monday
141,30773805.982553665
190,0.0
2,2, 1, 2, 0,24, 0.00,60.00,Monday
141,30770052.523393855
190,0.0
2,3, 1, 3, 0, 1, 0.00,60.00,Tuesday
141,30787152.61577692
190,0.0
2,3, 1, 3, 0, 2, 0.00,60.00,Tuesday
141,30750121.07143216
190,0.0
2,3, 1, 3, 0, 3, 0.00,60.00,Tuesday
141,30695973.82966504
190,0.0
2,3, 1, 3, 0, 4, 0.00,60.00,Tuesday
141,30765832.539788418
190,0.0
2,3, 1, 3, 0, 5, 0.00,60.00,Tuesday
141,31489849.94676817
190,0.0
2,3, 1, 3, 0, 6, 0.00,60.00,Tuesday
141,31951880.08029835
190,0.0
2,3, 1, 3, 0, 7, 0.00,60.00,Tuesday
141,32164382.114751004
190,0.0
2,3, 1, 3, 0, 8, 0.00,60.00,Tuesday
141,32081292.145143427
190,0.0
2,3, 1, 3, 0, 9, 0.00,60.00,Tuesday
141,32677368.71317392
190,0.0
2,3, 1, 3, 0,10, 0.00,60.00,Tuesday
141,32959244.33366766
190,0.0
2,3, 1, 3, 0,11, 0.00,60.00,Tuesday
141,33024155.989465103
190,0.0
2,3, 1, 3, 0,12, 0.00,60.00,Tuesday
141,33201603.19681599
190,0.0
2,3, 1, 3, 0,13, 0.00,60.00,Tuesday
141,34133805.02084285
190,0.0
2,3, 1, 3, 0,14, 0.00,60.00,Tuesday
141,34643736.08999007
190,0.0
2,3, 1, 3, 0,15, 0.00,60.00,Tuesday
141,34526570.18251423
190,0.0
2,3, 1, 3, 0,16, 0.00,60.00,Tuesday
141,34421417.34994663
190,0.0
2,3, 1, 3, 0,17, 0.00,60.00,Tuesday
141,34450645.882517606
190,0.0
2,3, 1, 3, 0,18, 0.00,60.00,Tuesday
141,34526045.07182199
190,0.0
2,3, 1, 3, 0,19, 0.00,60.00,Tuesday
141,34374633.60703544
190,0.0
2,3, 1, 3, 0,20, 0.00,60.00,Tuesday
141,33636989.87989745
190,0.0
2,3, 1, 3, 0,21, 0.00,60.00,Tuesday
141,31644422.18676513
190,0.0
2,3, 1, 3, 0,22, 0.00,60.00,Tuesday
141,30575553.801427618
190,0.0
2,3, 1, 3, 0,23, 0.00,60.00,Tuesday
141,31337772.44685525
190,0.0
2,3, 1, 3, 0,24, 0.00,60.00,Tuesday
141,32638309.1534486
190,0.0
2,4, 1, 4, 0, 1, 0.00,60.00,Wednesday
141,33286900.716425627
190,0.0
2,4, 1, 4, 0, 2, 0.00,60.00,Wednesday
141,33185660.24752429
190,0.0
2,4, 1, 4, 0, 3, 0.00,60.00,Wednesday
141,32990314.757059805
190,0.0
2,4, 1, 4, 0, 4, 0.00,60.00,Wednesday
141,33209886.40201249
190,0.0
2,4, 1, 4, 0, 5, 0.00,60.00,Wednesday
141,34072940.575919315
190,0.0
2,4, 1, 4, 0, 6, 0.00,60.00,Wednesday
141,33845241.97411009
190,0.0
2,4, 1, 4, 0, 7, 0.00,60.00,Wednesday
141,33802064.7826994
190,0.0
2,4, 1, 4, 0, 8, 0.00,60.00,Wednesday
141,34147104.78382748
190,0.0
2,4, 1, 4, 0, 9, 0.00,60.00,Wednesday
141,34396143.357072435
190,0.0
2,4, 1, 4, 0,10, 0.00,60.00,Wednesday
141,34597749.465682104
190,0.0
2,4, 1, 4, 0,11, 0.00,60.00,Wednesday
141,33035048.861191608
190,0.0
2,4, 1, 4, 0,12, 0.00,60.00,Wednesday
141,30390265.999160506
190,0.0
2,4, 1, 4, 0,13, 0.00,60.00,Wednesday
141,29680872.1852414
190,0.0
2,4, 1, 4, 0,14, 0.00,60.00,Wednesday
141,29587590.022522196
190,0.0
2,4, 1, 4, 0,15, 0.00,60.00,Wednesday
141,29337714.013742626
190,0.0
2,4, 1, 4, 0,16, 0.00,60.00,Wednesday
141,30429574.39608144
190,0.0
2,4, 1, 4, 0,17, 0.00,60.00,Wednesday
141,32381541.233821597
190,0.0
2,4, 1, 4, 0,18, 0.00,60.00,Wednesday
141,34072508.910441935
190,0.0
2,4, 1, 4, 0,19, 0.00,60.00,Wednesday
141,35789278.35280691
190,0.0
2,4, 1, 4, 0,20, 0.00,60.00,Wednesday
141,36686100.733693585
190,0.0
2,4, 1, 4, 0,21, 0.00,60.00,Wednesday
141,37083951.65873777
190,0.0
2,4, 1, 4, 0,22, 0.00,60.00,Wednesday
141,37899851.15581214
190,0.0
2,4, 1, 4, 0,23, 0.00,60.00,Wednesday
141,37513824.696056105
190,0.0
2,4, 1, 4, 0,24, 0.00,60.00,Wednesday
141,36875189.79733481
190,0.0
2,5, 1, 5, 0, 1, 0.00,60.00,Thursday
141,37066401.43100174
190,0.0
2,5, 1, 5, 0, 2, 0.00,60.00,Thursday
141,36615330.258813746
190,0.0
2,5, 1, 5, 0, 3, 0.00,60.00,Thursday
141,36181996.01663635
190,0.0
2,5, 1, 5, 0, 4, 0.00,60.00,Thursday
141,36243838.84964801
190,0.0
2,5, 1, 5, 0, 5, 0.00,60.00,Thursday
141,35768150.22957608
190,0.0
2,5, 1, 5, 0, 6, 0.00,60.00,Thursday
141,35569154.719988994
190,0.0
2,5, 1, 5, 0, 7, 0.00,60.00,Thursday
141,35883034.89174989
190,0.0
2,5, 1, 5, 0, 8, 0.00,60.00,Thursday
141,36163934.409753054
190,0.0
2,5, 1, 5, 0, 9, 0.00,60.00,Thursday
141,36273084.286876336
190,0.0
2,5, 1, 5, 0,10, 0.00,60.00,Thursday
141,36797975.51389265
190,0.0
2,5, 1, 5, 0,11, 0.00,60.00,Thursday
141,36675179.126650035
190,0.0
2,5, 1, 5, 0,12, 0.00,60.00,Thursday
141,35552264.56036446
190,0.0
2,5, 1, 5, 0,13, 0.00,60.00,Thursday
141,35166970.97014606
190,0.0
2,5, 1, 5, 0,14, 0.00,60.00,Thursday
141,34365480.16946942
190,0.0
2,5, 1, 5, 0,15, 0.00,60.00,Thursday
141,33732503.573501885
190,0.0
2,5, 1, 5, 0,16, 0.00,60.00,Thursday
141,34274752.04068166
190,0.0
2,5, 1, 5, 0,17, 0.00,60.00,Thursday
141,34156064.63234526
190,0.0
2,5, 1, 5, 0,18, 0.00,60.00,Thursday
141,33817643.19556309
190,0.0
2,5, 1, 5, 0,19, 0.00,60.00,Thursday
141,34027534.72846821
190,0.0
2,5, 1, 5, 0,20, 0.00,60.00,Thursday
141,34000854.286723375
190,0.0
2,5, 1, 5, 0,21, 0.00,60.00,Thursday
141,33893586.687129706
190,0.0
2,5, 1, 5, 0,22, 0.00,60.00,Thursday
141,33930029.762165666
190,0.0
2,5, 1, 5, 0,23, 0.00,60.00,Thursday
141,34114196.531369716
190,0.0
2,5, 1, 5, 0,24, 0.00,60.00,Thursday
141,34313137.36324949
190,0.0
2,6, 1, 6, 0, 1, 0.00,60.00,Friday
141,34448251.404543795
190,0.0
2,6, 1, 6, 0, 2, 0.00,60.00,Friday
141,34577153.50072922
190,0.0
2,6, 1, 6, 0, 3, 0.00,60.00,Friday
141,35342357.862145856
190,0.0
2,6, 1, 6, 0, 4, 0.00,60.00,Friday
141,36082852.11670865
190,0.0
2,6, 1, 6, 0, 5, 0.00,60.00,Friday
141,36472864.38176629
190,0.0
2,6, 1, 6, 0, 6, 0.00,60.00,Friday
141,36944772.51290811
190,0.0
2,6, 1, 6, 0, 7, 0.00,60.00,Friday
141,37637175.6145798
190,0.0
2,6, 1, 6, 0, 8, 0.00,60.00,Friday
141,38290723.043743156
190,0.0
2,6, 1, 6, 0, 9, 0.00,60.00,Friday
141,39075660.42230265
190,0.0
2,6, 1, 6, 0,10, 0.00,60.00,Friday
141,39541360.1211479
190,0.0
2,6, 1, 6, 0,11, 0.00,60.00,Friday
141,39020717.17226929
190,0.0
2,6, 1, 6, 0,12, 0.00,60.00,Friday
141,38206584.356300056
190,0.0
2,6, 1, 6, 0,13, 0.00,60.00,Friday
141,37820414.06785778
190,0.0
2,6, 1, 6, 0,14, 0.00,60.00,Friday
141,37664389.88910535
190,0.0
2,6, 1, 6, 0,15, 0.00,60.00,Friday
141,37445809.61984292
190,0.0
2,6, 1, 6, 0,16, 0.00,60.00,Friday
141,36936647.11418349
190,0.0
2,6, 1, 6, 0,17, 0.00,60.00,Friday
141,36410623.09173913
190,0.0
2,6, 1, 6, 0,18, 0.00,60.00,Friday
141,36161343.501737006
190,0.0
2,6, 1, 6, 0,19, 0.00,60.00,Friday
141,35869829.734509625
190,0.0
2,6, 1, 6, 0,20, 0.00,60.00,Friday
141,35156254.74797047
190,0.0
2,6, 1, 6, 0,21, 0.00,60.00,Friday
141,33366010.00021484
190,0.0
2,6, 1, 6, 0,22, 0.00,60.00,Friday
141,31222741.866341963
190,0.0
2,6, 1, 6, 0,23, 0.00,60.00,Friday
141,30266716.122098412
190,0.0
2,6, 1, 6, 0,24, 0.00,60.00,Friday
141,30481976.355531253
190,0.0
2,7, 1, 7, 0, 1, 0.00,60.00,Saturday
141,32186047.53185825
190,0.0
2,7, 1, 7, 0, 2, 0.00,60.00,Saturday
141,33884243.86625782
190,0.0
2,7, 1, 7, 0, 3, 0.00,60.00,Saturday
141,33644920.80235818
190,0.0
2,7, 1, 7, 0, 4, 0.00,60.00,Saturday
141,33781552.53860111
190,0.0
2,7, 1, 7, 0, 5, 0.00,60.00,Saturday
141,34939503.64920251
190,0.0
2,7, 1, 7, 0, 6, 0.00,60.00,Saturday
141,35844290.18578534
190,0.0
2,7, 1, 7, 0, 7, 0.00,60.00,Saturday
141,36372259.17951058
190,0.0
2,7, 1, 7, 0, 8, 0.00,60.00,Saturday
141,36629045.2735738
190,0.0
2,7, 1, 7, 0, 9, 0.00,60.00,Saturday
141,35973799.64605604
190,0.0
2,7, 1, 7, 0,10, 0.00,60.00,Saturday
141,35385555.13262954
190,0.0
2,7, 1, 7, 0,11, 0.00,60.00,Saturday
141,33672772.20366584
190,0.0
2,7, 1, 7, 0,12, 0.00,60.00,Saturday
141,31948427.982516587
190,0.0
2,7, 1, 7, 0,13, 0.00,60.00,Saturday
141,30700038.117580004
190,0.0
2,7, 1, 7, 0,14, 0.00,60.00,Saturday
141,30081593.614380743
190,0.0
2,7, 1, 7, 0,15, 0.00,60.00,Saturday
141,30381813.06978993
190,0.0
2,7, 1, 7, 0,16, 0.00,60.00,Saturday
141,30991787.129851945
190,0.0
2,7, 1, 7, 0,17, 0.00,60.00,Saturday
141,31508176.095036857
190,0.0
2,7, 1, 7, 0,18, 0.00,60.00,Saturday
141,32377764.36390546
190,0.0
2,7, 1, 7, 0,19, 0.00,60.00,Saturday
141,33188103.58909142
190,0.0
2,7, 1, 7, 0,20, 0.00,60.00,Saturday
141,33963597.80749226
190,0.0
2,7, 1, 7, 0,21, 0.00,60.00,Saturday
141,34513881.83473096
190,0.0
2,7, 1, 7, 0,22, 0.00,60.00,Saturday
141,34538574.68459699
190,0.0
2,7, 1, 7, 0,23, 0.00,60.00,Saturday
141,34629714.70993188
190,0.0
2,7, 1, 7, 0,24, 0.00,60.00,Saturday
141,34567368.469717145
190,0.0
2,8, 1, 8, 0, 1, 0.00,60.00,Sunday
141,34041351.9919961
190,0.0
2,8, 1, 8, 0, 2, 0.00,60.00,Sunday
141,33426965.240651228
190,0.0
2,8, 1, 8, 0, 3, 0.00,60.00,Sunday
141,32868025.66392727
190,0.0
2,8, 1, 8, 0, 4, 0.00,60.00,Sunday
141,32077772.276864395
190,0.0
2,8, 1, 8, 0, 5, 0.00,60.00,Sunday
141,31122115.819860674
190,0.0
2,8, 1, 8, 0, 6, 0.00,60.00,Sunday
141,30401842.39290107
190,0.0
2,8, 1, 8, 0, 7, 0.00,60.00,Sunday
141,29850248.871947143
190,0.0
2,8, 1, 8, 0, 8, 0.00,60.00,Sunday
141,29377280.319208425
190,0.0
2,8, 1, 8, 0, 9, 0.00,60.00,Sunday
141,28885382.67731403
190,0.0
2,8, 1, 8, 0,10, 0.00,60.00,Sunday
141,28722781.24549607
190,0.0
2,8, 1, 8, 0,11, 0.00,60.00,Sunday
141,28598446.069345027
190,0.0
2,8, 1, 8, 0,12, 0.00,60.00,Sunday
141,28692076.918273684
190,0.0
2,8, 1, 8, 0,13, 0.00,60.00,Sunday
141,28600342.7477546
190,0.0
2,8, 1, 8, 0,14, 0.00,60.00,Sunday
141,28712876.33345584
190,0.0
2,8, 1, 8, 0,15, 0.00,60.00,Sunday
141,29758367.190759975
190,0.0
2,8, 1, 8, 0,16, 0.00,60.00,Sunday
141,30511218.02696888
190,0.0
2,8, 1, 8, 0,17, 0.00,60.00,Sunday
141,30546721.91180228
190,0.0
2,8, 1, 8, 0,18, 0.00,60.00,Sunday
141,30877039.286646407
190,0.0
2,8, 1, 8, 0,19, 0.00,60.00,Sunday
141,30690834.00681516
190,0.0
2,8, 1, 8, 0,20, 0.00,60.00,Sunday
141,30051778.52313706
190,0.0
2,8, 1, 8, 0,21, 0.00,60.00,Sunday
141,29589486.688830536
190,0.0
2,8, 1, 8, 0,22, 0.00,60.00,Sunday
141,29710705.402637985
190,0.0
2,8, 1, 8, 0,23, 0.00,60.00,Sunday
141,29823529.553952925
190,0.0
2,8, 1, 8, 0,24, 0.00,60.00,Sunday
141,30190089.752789915
190,0.0
2,9, 1, 9, 0, 1, 0.00,60.00,Monday
141,30253079.75806753
190,0.0
2,9, 1, 9, 0, 2, 0.00,60.00,Monday
141,30287306.486048065
190,0.0
2,9, 1, 9, 0, 3, 0.00,60.00,Monday
141,30187044.837498076
190,0.0
2,9, 1, 9, 0, 4, 0.00,60.00,Monday
141,29947894.090787444
190,0.0
2,9, 1, 9, 0, 5, 0.00,60.00,Monday
141,29422498.18005847
190,0.0
2,9, 1, 9, 0, 6, 0.00,60.00,Monday
141,28891424.124360822
190,0.0
2,9, 1, 9, 0, 7, 0.00,60.00,Monday
141,28506667.827547524
190,0.0
2,9, 1, 9, 0, 8, 0.00,60.00,Monday
141,28295711.40714106
190,0.0
2,9, 1, 9, 0, 9, 0.00,60.00,Monday
141,27727654.620480075
190,0.0
2,9, 1, 9, 0,10, 0.00,60.00,Monday
141,26354225.82641507
190,0.0
2,9, 1, 9, 0,11, 0.00,60.00,Monday
141,25184191.495785274
190,0.0
2,9, 1, 9, 0,12, 0.00,60.00,Monday
141,24536361.60524013
190,0.0
2,9, 1, 9, 0,13, 0.00,60.00,Monday
141,24002356.001811378
190,0.0
2,9, 1, 9, 0,14, 0.00,60.00,Monday
141,23614554.99836912
190,0.0
2,9, 1, 9, 0,15, 0.00,60.00,Monday
141,23482532.445647303
190,0.0
2,9, 1, 9, 0,16, 0.00,60.00,Monday
141,23760307.682034303
190,0.0
2,9, 1, 9, 0,17, 0.00,60.00,Monday
141,24692647.19057501
190,0.0
2,9, 1, 9, 0,18, 0.00,60.00,Monday
141,25572025.985347122
190,0.0
2,9, 1, 9, 0,19, 0.00,60.00,Monday
141,25501867.872340064
190,0.0
2,9, 1, 9, 0,20, 0.00,60.00,Monday
141,24274271.384929992
190,0.0
2,9, 1, 9, 0,21, 0.00,60.00,Monday
141,23032870.290142685
190,0.0
2,9, 1, 9, 0,22, 0.00,60.00,Monday
141,22270344.826765865
190,0.0
2,9, 1, 9, 0,23, 0.00,60.00,Monday
141,22125300.801539782
190,0.0
2,9, 1, 9, 0,24, 0.00,60.00,Monday
141,22199531.676214386
190,0.0
2,10, 1,10, 0, 1, 0.00,60.00,Tuesday
141,22536887.245737895
190,0.0
2,10, 1,10, 0, 2, 0.00,60.00,Tuesday
141,22766842.54691707
190,0.0
2,10, 1,10, 0, 3, 0.00,60.00,Tuesday
141,22806134.92031806
190,0.0
2,10, 1,10, 0, 4, 0.00,60.00,Tuesday
141,23185837.542603552
190,0.0
2,10, 1,10, 0, 5, 0.00,60.00,Tuesday
141,23326142.729729295
190,0.0
2,10, 1,10, 0, 6, 0.00,60.00,Tuesday
141,23373070.113259636
190,0.0
2,10, 1,10, 0, 7, 0.00,60.00,Tuesday
141,23428946.88740534
190,0.0
2,10, 1,10, 0, 8, 0.00,60.00,Tuesday
141,23301180.60853716
190,0.0
2,10, 1,10, 0, 9, 0.00,60.00,Tuesday
141,23115495.50128445
190,0.0
2,10, 1,10, 0,10, 0.00,60.00,Tuesday
141,22859865.34833332
190,0.0
2,10, 1,10, 0,11, 0.00,60.00,Tuesday
141,22482626.807429343
190,0.0
2,10, 1,10, 0,12, 0.00,60.00,Tuesday
141,22049246.92029719
190,0.0
2,10, 1,10, 0,13, 0.00,60.00,Tuesday
141,21981924.19242616
190,0.0
2,10, 1,10, 0,14, 0.00,60.00,Tuesday
141,23587069.399586987
190,0.0
2,10, 1,10, 0,15, 0.00,60.00,Tuesday
141,24884305.144604657
190,0.0
2,10, 1,10, 0,16, 0.00,60.00,Tuesday
141,25682808.824586503
190,0.0
2,10, 1,10, 0,17, 0.00,60.00,Tuesday
141,26503182.491645202
190,0.0
2,10, 1,10, 0,18, 0.00,60.00,Tuesday
141,27565213.13254877
190,0.0
2,10, 1,10, 0,19, 0.00,60.00,Tuesday
141,28123013.68938621
190,0.0
2,10, 1,10, 0,20, 0.00,60.00,Tuesday
141,28537216.67485058
190,0.0
2,10, 1,10, 0,21, 0.00,60.00,Tuesday
141,29196031.420582227
190,0.0
2,10, 1,10, 0,22, 0.00,60.00,Tuesday
141,29564630.42723949
190,0.0
2,10, 1,10, 0,23, 0.00,60.00,Tuesday
141,29309503.410644084
190,0.0
2,10, 1,10, 0,24, 0.00,60.00,Tuesday
141,29730296.590082556
190,0.0
2,11, 1,11, 0, 1, 0.00,60.00,Wednesday
141,29781503.18631686
190,0.0
2,11, 1,11, 0, 2, 0.00,60.00,Wednesday
141,29830339.43993189
190,0.0
2,11, 1,11, 0, 3, 0.00,60.00,Wednesday
141,30050993.72589411
190,0.0
2,11, 1,11, 0, 4, 0.00,60.00,Wednesday
141,29692451.768290736
190,0.0
2,11, 1,11, 0, 5, 0.00,60.00,Wednesday
141,29429811.01646363
190,0.0
2,11, 1,11, 0, 6, 0.00,60.00,Wednesday
141,29318386.359015994
190,0.0
2,11, 1,11, 0, 7, 0.00,60.00,Wednesday
141,29392645.24540092
190,0.0
2,11, 1,11, 0, 8, 0.00,60.00,Wednesday
141,29488329.560982563
190,0.0
2,11, 1,11, 0, 9, 0.00,60.00,Wednesday
141,29409506.00213234
190,0.0
2,11, 1,11, 0,10, 0.00,60.00,Wednesday
141,29211572.524353
190,0.0
2,11, 1,11, 0,11, 0.00,60.00,Wednesday
141,28883679.81166931
190,0.0
2,11, 1,11, 0,12, 0.00,60.00,Wednesday
141,28350996.797747724
190,0.0
2,11, 1,11, 0,13, 0.00,60.00,Wednesday
141,27941910.07089787
190,0.0
2,11, 1,11, 0,14, 0.00,60.00,Wednesday
141,27771534.160296846
190,0.0
2,11, 1,11, 0,15, 0.00,60.00,Wednesday
141,27731857.931258727
190,0.0
2,11, 1,11, 0,16, 0.00,60.00,Wednesday
141,27753113.125628375
190,0.0
2,11, 1,11, 0,17, 0.00,60.00,Wednesday
141,27472391.255340546
190,0.0
2,11, 1,11, 0,18, 0.00,60.00,Wednesday
141,27203918.852251977
190,0.0
2,11, 1,11, 0,19, 0.00,60.00,Wednesday
141,27020114.280328088
190,0.0
2,11, 1,11, 0,20, 0.00,60.00,Wednesday
141,27005973.451688863
190,0.0
2,11, 1,11, 0,21, 0.00,60.00,Wednesday
141,27003315.296000175
190,0.0
2,11, 1,11, 0,22, 0.00,60.00,Wednesday
141,26431354.85665683
190,0.0
2,11, 1,11, 0,23, 0.00,60.00,Wednesday
141,25990445.829467088
190,0.0
2,11, 1,11, 0,24, 0.00,60.00,Wednesday
141,26028541.62099056
190,0.0
2,12, 1,12, 0, 1, 0.00,60.00,Thursday
141,26245915.06337394
190,0.0
2,12, 1,12, 0, 2, 0.00,60.00,Thursday
141,26280393.000003625
190,0.0
2,12, 1,12, 0, 3, 0.00,60.00,Thursday
141,26151353.3688688
190,0.0
2,12, 1,12, 0, 4, 0.00,60.00,Thursday
141,26177442.274494413
190,0.0
2,12, 1,12, 0, 5, 0.00,60.00,Thursday
141,26385742.48426958
190,0.0
2,12, 1,12, 0, 6, 0.00,60.00,Thursday
141,26868183.8926717
190,0.0
2,12, 1,12, 0, 7, 0.00,60.00,Thursday
141,27131682.01022793
190,0.0
2,12, 1,12, 0, 8, 0.00,60.00,Thursday
141,27200578.41693013
190,0.0
2,12, 1,12, 0, 9, 0.00,60.00,Thursday
141,26870870.770101745
190,0.0
2,12, 1,12, 0,10, 0.00,60.00,Thursday
141,26146993.38192639
190,0.0
2,12, 1,12, 0,11, 0.00,60.00,Thursday
141,25595977.47944514
190,0.0
2,12, 1,12, 0,12, 0.00,60.00,Thursday
141,25281908.280220084
190,0.0
2,12, 1,12, 0,13, 0.00,60.00,Thursday
141,24868800.467396416
190,0.0
2,12, 1,12, 0,14, 0.00,60.00,Thursday
141,24422285.928441886
190,0.0
2,12, 1,12, 0,15, 0.00,60.00,Thursday
141,24406938.914128285
190,0.0
2,12, 1,12, 0,16, 0.00,60.00,Thursday
141,24586569.187282935
190,0.0
2,12, 1,12, 0,17, 0.00,60.00,Thursday
141,25463271.424471587
190,0.0
2,12, 1,12, 0,18, 0.00,60.00,Thursday
141,25975236.054169264
190,0.0
2,12, 1,12, 0,19, 0.00,60.00,Thursday
141,25766223.482062742
190,0.0
2,12, 1,12, 0,20, 0.00,60.00,Thursday
141,25278353.703114755
190,0.0
2,12, 1,12, 0,21, 0.00,60.00,Thursday
141,25077953.932582546
190,0.0
2,12, 1,12, 0,22, 0.00,60.00,Thursday
141,24747115.83227646
190,0.0
2,12, 1,12, 0,23, 0.00,60.00,Thursday
141,24621839.411216393
190,0.0
2,12, 1,12, 0,24, 0.00,60.00,Thursday
141,24644043.97251125
190,0.0
2,13, 1,13, 0, 1, 0.00,60.00,Friday
141,24428277.770527307
190,0.0
2,13, 1,13, 0, 2, 0.00,60.00,Friday
141,24230946.677999802
190,0.0
2,13, 1,13, 0, 3, 0.00,60.00,Friday
141,23936928.24907076
190,0.0
2,13, 1,13, 0, 4, 0.00,60.00,Friday
141,23758760.073315307
190,0.0
2,13, 1,13, 0, 5, 0.00,60.00,Friday
141,23742099.762141347
190,0.0
2,13, 1,13, 0, 6, 0.00,60.00,Friday
141,23800776.27423568
190,0.0
2,13, 1,13, 0, 7, 0.00,60.00,Friday
141,23984432.249929115
190,0.0
2,13, 1,13, 0, 8, 0.00,60.00,Friday
141,23996286.89751791
190,0.0
2,13, 1,13, 0, 9, 0.00,60.00,Friday
141,23777111.075276956
190,0.0
2,13, 1,13, 0,10, 0.00,60.00,Friday
141,24322986.290795404
190,0.0
2,13, 1,13, 0,11, 0.00,60.00,Friday
141,24933632.38679965
190,0.0
2,13, 1,13, 0,12, 0.00,60.00,Friday
141,24970827.167300493
190,0.0
2,13, 1,13, 0,13, 0.00,60.00,Friday
141,25040215.66818267
190,0.0
2,13, 1,13, 0,14, 0.00,60.00,Friday
141,25411732.156231135
190,0.0
2,13, 1,13, 0,15, 0.00,60.00,Friday
141,25608450.191852313
190,0.0
2,13, 1,13, 0,16, 0.00,60.00,Friday
141,25520247.533109065
190,0.0
2,13, 1,13, 0,17, 0.00,60.00,Friday
141,25376010.732193984
190,0.0
2,13, 1,13, 0,18, 0.00,60.00,Friday
141,25299623.82849576
190,0.0
2,13, 1,13, 0,19, 0.00,60.00,Friday
141,25645722.742319696
190,0.0
2,13, 1,13, 0,20, 0.00,60.00,Friday
141,26271746.52752145
190,0.0
2,13, 1,13, 0,21, 0.00,60.00,Friday
141,26830174.986632116
190,0.0
2,13, 1,13, 0,22, 0.00,60.00,Friday
141,27179091.579289436
190,0.0
2,13, 1,13, 0,23, 0.00,60.00,Friday
141,27035902.845641702
190,0.0
2,13, 1,13, 0,24, 0.00,60.00,Friday
141,28513980.734557606
190,0.0
2,14, 1,14, 0, 1, 0.00,60.00,Saturday
141,29528089.864576295
190,0.0
2,14, 1,14, 0, 2, 0.00,60.00,Saturday
141,29091324.950276937
190,0.0
2,14, 1,14, 0, 3, 0.00,60.00,Saturday
141,29168842.523518883
190,0.0
2,14, 1,14, 0, 4, 0.00,60.00,Saturday
141,28999383.193622578
190,0.0
2,14, 1,14, 0, 5, 0.00,60.00,Saturday
141,28945401.48979896
190,0.0
2,14, 1,14, 0, 6, 0.00,60.00,Saturday
141,30021410.352164418
190,0.0
2,14, 1,14, 0, 7, 0.00,60.00,Saturday
141,30826194.821599245
190,0.0
2,14, 1,14, 0, 8, 0.00,60.00,Saturday
141,30546614.985485695
190,0.0
2,14, 1,14, 0, 9, 0.00,60.00,Saturday
141,30965538.626808494
190,0.0
2,14, 1,14, 0,10, 0.00,60.00,Saturday
141,31535376.92661881
190,0.0
2,14, 1,14, 0,11, 0.00,60.00,Saturday
141,31279153.999230303
190,0.0
2,14, 1,14, 0,12, 0.00,60.00,Saturday
141,30905009.8335333
190,0.0
2,14, 1,14, 0,13, 0.00,60.00,Saturday
141,30266652.9614326
190,0.0
2,14, 1,14, 0,14, 0.00,60.00,Saturday
141,28987172.59484349
190,0.0
2,14, 1,14, 0,15, 0.00,60.00,Saturday
141,28823720.21854922
190,0.0
2,14, 1,14, 0,16, 0.00,60.00,Saturday
141,29111707.740931597
190,0.0
2,14, 1,14, 0,17, 0.00,60.00,Saturday
141,29626748.784934007
190,0.0
2,14, 1,14, 0,18, 0.00,60.00,Saturday
141,30579012.3513323
190,0.0
2,14, 1,14, 0,19, 0.00,60.00,Saturday
141,30603602.693462264
190,0.0
2,14, 1,14, 0,20, 0.00,60.00,Saturday
141,30734293.364595987
190,0.0
2,14, 1,14, 0,21, 0.00,60.00,Saturday
141,30559931.8414901
190,0.0
2,14, 1,14, 0,22, 0.00,60.00,Saturday
141,30235325.21690523
190,0.0
2,14, 1,14, 0,23, 0.00,60.00,Saturday
141,30002780.82184522
190,0.0
2,14, 1,14, 0,24, 0.00,60.00,Saturday
141,29907822.727493837
190,0.0
2,15, 1,15, 0, 1, 0.00,60.00,Sunday
141,29340304.482417516
190,0.0
2,15, 1,15, 0, 2, 0.00,60.00,Sunday
141,27989003.036693737
190,0.0
2,15, 1,15, 0, 3, 0.00,60.00,Sunday
141,27338194.927216902
190,0.0
2,15, 1,15, 0, 4, 0.00,60.00,Sunday
141,26886511.743814282
190,0.0
2,15, 1,15, 0, 5, 0.00,60.00,Sunday
141,26046234.223030113
190,0.0
2,15, 1,15, 0, 6, 0.00,60.00,Sunday
141,25162853.827177092
190,0.0
2,15, 1,15, 0, 7, 0.00,60.00,Sunday
141,24293416.1560857
190,0.0
2,15, 1,15, 0, 8, 0.00,60.00,Sunday
141,23728552.996076684
190,0.0
2,15, 1,15, 0, 9, 0.00,60.00,Sunday
141,23308337.43098186
190,0.0
2,15, 1,15, 0,10, 0.00,60.00,Sunday
141,23275647.22194287
190,0.0
2,15, 1,15, 0,11, 0.00,60.00,Sunday
141,23783659.03822294
190,0.0
2,15, 1,15, 0,12, 0.00,60.00,Sunday
141,25043473.49786962
190,0.0
2,15, 1,15, 0,13, 0.00,60.00,Sunday
141,25982936.91245581
190,0.0
2,15, 1,15, 0,14, 0.00,60.00,Sunday
141,26389930.17537224
190,0.0
2,15, 1,15, 0,15, 0.00,60.00,Sunday
141,26569063.012260176
190,0.0
2,15, 1,15, 0,16, 0.00,60.00,Sunday
141,26296704.718773164
190,0.0
2,15, 1,15, 0,17, 0.00,60.00,Sunday
141,26115759.52798019
190,0.0
2,15, 1,15, 0,18, 0.00,60.00,Sunday
141,26216192.797251783
190,0.0
2,15, 1,15, 0,19, 0.00,60.00,Sunday
141,26440910.676577166
190,0.0
2,15, 1,15, 0,20, 0.00,60.00,Sunday
141,26721908.671039633
190,0.0
2,15, 1,15, 0,21, 0.00,60.00,Sunday
141,27298475.806197196
190,0.0
2,15, 1,15, 0,22, 0.00,60.00,Sunday
141,27560181.966133505
190,0.0
2,15, 1,15, 0,23, 0.00,60.00,Sunday
141,27596009.37201301
190,0.0
2,15, 1,15, 0,24, 0.00,60.00,Sunday
141,27740516.51126304
190,0.0
2,16, 1,16, 0, 1, 0.00,60.00,Monday
141,28257595.107738588
190,0.0
2,16, 1,16, 0, 2, 0.00,60.00,Monday
141,28739889.18606053
190,0.0
2,16, 1,16, 0, 3, 0.00,60.00,Monday
141,29007906.89405295
190,0.0
2,16, 1,16, 0, 4, 0.00,60.00,Monday
141,29201227.997508913
190,0.0
2,16, 1,16, 0, 5, 0.00,60.00,Monday
141,29493167.146202803
190,0.0
2,16, 1,16, 0, 6, 0.00,60.00,Monday
141,29742840.976045657
190,0.0
2,16, 1,16, 0, 7, 0.00,60.00,Monday
141,30263030.954112884
190,0.0
2,16, 1,16, 0, 8, 0.00,60.00,Monday
141,30751400.728961296
190,0.0
2,16, 1,16, 0, 9, 0.00,60.00,Monday
141,30955511.85210227
190,0.0
2,16, 1,16, 0,10, 0.00,60.00,Monday
141,30951981.010852993
190,0.0
2,16, 1,16, 0,11, 0.00,60.00,Monday
141,29837641.71718236
190,0.0
2,16, 1,16, 0,12, 0.00,60.00,Monday
141,28854247.00260486
190,0.0
2,16, 1,16, 0,13, 0.00,60.00,Monday
141,28092188.619866878
190,0.0
2,16, 1,16, 0,14, 0.00,60.00,Monday
141,27591165.7768842
190,0.0
2,16, 1,16, 0,15, 0.00,60.00,Monday
141,27546050.161813043
190,0.0
2,16, 1,16, 0,16, 0.00,60.00,Monday
141,27781915.409109786
190,0.0
2,16, 1,16, 0,17, 0.00,60.00,Monday
141,28341012.75019859
190,0.0
2,16, 1,16, 0,18, 0.00,60.00,Monday
141,29397836.55932027
190,0.0
2,16, 1,16, 0,19, 0.00,60.00,Monday
141,30506286.838460684
190,0.0
2,16, 1,16, 0,20, 0.00,60.00,Monday
141,31068967.151874036
190,0.0
2,16, 1,16, 0,21, 0.00,60.00,Monday
141,31512338.4531547
190,0.0
2,16, 1,16, 0,22, 0.00,60.00,Monday
141,31913622.89798209
190,0.0
2,16, 1,16, 0,23, 0.00,60.00,Monday
141,32518893.942028116
190,0.0
2,16, 1,16, 0,24, 0.00,60.00,Monday
141,32649987.241080534
190,0.0
2,17, 1,17, 0, 1, 0.00,60.00,Tuesday
141,32826268.663818087
190,0.0
2,17, 1,17, 0, 2, 0.00,60.00,Tuesday
141,33549060.205910765
190,0.0
2,17, 1,17, 0, 3, 0.00,60.00,Tuesday
141,34146183.86261117
190,0.0
2,17, 1,17, 0, 4, 0.00,60.00,Tuesday
141,34650590.60115736
190,0.0
2,17, 1,17, 0, 5, 0.00,60.00,Tuesday
141,35213917.80517422
190,0.0
2,17, 1,17, 0, 6, 0.00,60.00,Tuesday
141,35779662.54538668
190,0.0
2,17, 1,17, 0, 7, 0.00,60.00,Tuesday
141,36108240.57265761
190,0.0
2,17, 1,17, 0, 8, 0.00,60.00,Tuesday
141,36272269.89196939
190,0.0
2,17, 1,17, 0, 9, 0.00,60.00,Tuesday
141,36285807.767066106
190,0.0
2,17, 1,17, 0,10, 0.00,60.00,Tuesday
141,34995413.27259195
190,0.0
2,17, 1,17, 0,11, 0.00,60.00,Tuesday
141,33105121.95154293
190,0.0
2,17, 1,17, 0,12, 0.00,60.00,Tuesday
141,31477296.96903045
190,0.0
2,17, 1,17, 0,13, 0.00,60.00,Tuesday
141,30533288.626871783
190,0.0
2,17, 1,17, 0,14, 0.00,60.00,Tuesday
141,30341101.616647214
190,0.0
2,17, 1,17, 0,15, 0.00,60.00,Tuesday
141,30675719.855024368
190,0.0
2,17, 1,17, 0,16, 0.00,60.00,Tuesday
141,31627762.18909718
190,0.0
2,17, 1,17, 0,17, 0.00,60.00,Tuesday
141,32400318.938535307
190,0.0
2,17, 1,17, 0,18, 0.00,60.00,Tuesday
141,32527380.21395113
190,0.0
2,17, 1,17, 0,19, 0.00,60.00,Tuesday
141,32510331.434123624
190,0.0
2,17, 1,17, 0,20, 0.00,60.00,Tuesday
141,32714369.992552124
190,0.0
2,17, 1,17, 0,21, 0.00,60.00,Tuesday
141,33026821.547309123
190,0.0
2,17, 1,17, 0,22, 0.00,60.00,Tuesday
141,33097448.42760118
190,0.0
2,17, 1,17, 0,23, 0.00,60.00,Tuesday
141,33151701.618557878
190,0.0
2,17, 1,17, 0,24, 0.00,60.00,Tuesday
141,33550432.632047698
190,0.0
2,18, 1,18, 0, 1, 0.00,60.00,Wednesday
141,33799791.483722135
190,0.0
2,18, 1,18, 0, 2, 0.00,60.00,Wednesday
141,33974443.38169879
190,0.0
2,18, 1,18, 0, 3, 0.00,60.00,Wednesday
141,34020703.26095391
190,0.0
2,18, 1,18, 0, 4, 0.00,60.00,Wednesday
141,33975414.35053822
190,0.0
2,18, 1,18, 0, 5, 0.00,60.00,Wednesday
141,33986230.14324345
190,0.0
2,18, 1,18, 0, 6, 0.00,60.00,Wednesday
141,34073280.77748454
190,0.0
2,18, 1,18, 0, 7, 0.00,60.00,Wednesday
141,34686258.039593376
190,0.0
2,18, 1,18, 0, 8, 0.00,60.00,Wednesday
141,34856155.775412574
190,0.0
2,18, 1,18, 0, 9, 0.00,60.00,Wednesday
141,34939736.02182877
190,0.0
2,18, 1,18, 0,10, 0.00,60.00,Wednesday
141,34884987.91564151
190,0.0
2,18, 1,18, 0,11, 0.00,60.00,Wednesday
141,34260169.18013141
190,0.0
2,18, 1,18, 0,12, 0.00,60.00,Wednesday
141,33782112.69521637
190,0.0
2,18, 1,18, 0,13, 0.00,60.00,Wednesday
141,33993251.099263586
190,0.0
2,18, 1,18, 0,14, 0.00,60.00,Wednesday
141,34460159.83567099
190,0.0
2,18, 1,18, 0,15, 0.00,60.00,Wednesday
141,34717799.49191818
190,0.0
2,18, 1,18, 0,16, 0.00,60.00,Wednesday
141,35263052.890686005
190,0.0
2,18, 1,18, 0,17, 0.00,60.00,Wednesday
141,35543430.1969036
190,0.0
2,18, 1,18, 0,18, 0.00,60.00,Wednesday
141,35351387.53396938
190,0.0
2,18, 1,18, 0,19, 0.00,60.00,Wednesday
141,35263421.2149283
190,0.0
2,18, 1,18, 0,20, 0.00,60.00,Wednesday
141,35367444.07967644
190,0.0
2,18, 1,18, 0,21, 0.00,60.00,Wednesday
141,35443518.1306206
190,0.0
2,18, 1,18, 0,22, 0.00,60.00,Wednesday
141,35624070.78284512
190,0.0
2,18, 1,18, 0,23, 0.00,60.00,Wednesday
141,35756858.23046613
190,0.0
2,18, 1,18, 0,24, 0.00,60.00,Wednesday
141,35932209.50220286
190,0.0
2,19, 1,19, 0, 1, 0.00,60.00,Thursday
141,35744840.92434698
190,0.0