Program Version,EnergyPlus, Version 24.2.0-94a887817b, YMD=2025.04.24 13:23
1,5,Environment Title[],Latitude[deg],Longitude[deg],Time Zone[],Elevation[m]
2,8,Day of Simulation[],Month[],Day of Month[],DST Indicator[1=yes 0=no],Hour[],StartMinute[],EndMinute[],DayType
3,5,Cumulative Day of Simulation[],Month[],Day of Month[],DST Indicator[1=yes 0=no],DayType  ! When Daily Report Variables Requested
4,2,Cumulative Days of Simulation[],Month[]  ! When Monthly Report Variables Requested
5,1,Cumulative Days of Simulation[] ! When Run Period Report Variables Requested
6,1,Calendar Year of Simulation[] ! When Annual Report Variables Requested
141,1,ZONE_0599100015001755 IDEAL LOADS AIR SYSTEM,Zone Ideal Loads Supply Air Total Heating Energy [J] !Hourly
190,1,ZONE_0599100015001755 IDEAL LOADS AIR SYSTEM,Zone Ideal Loads Supply Air Total Cooling Energy [J] !Hourly
End of Data Dictionary
1,RUN PERIOD 1,  51.96,   4.45,   1.00,  -4.50
2,1, 1, 1, 0, 1, 0.00,60.00,Sunday
141,51569601.36067779
190,0.0
2,1, 1, 1, 0, 2, 0.00,60.00,Sunday
141,53429579.611957684
190,0.0
2,1, 1, 1, 0, 3, 0.00,60.00,Sunday
141,53383087.35529672
190,0.0
2,1, 1, 1, 0, 4, 0.00,60.00,Sunday
141,54754995.87361044
190,0.0
2,1, 1, 1, 0, 5, 0.00,60.00,Sunday
141,55685789.08288686
190,0.0
2,1, 1, 1, 0, 6, 0.00,60.00,Sunday
141,55776445.670200445
190,0.0
2,1, 1, 1, 0, 7, 0.00,60.00,Sunday
141,55938438.295141
190,0.0
2,1, 1, 1, 0, 8, 0.00,60.00,Sunday
141,55811222.158127956
190,0.0
2,1, 1, 1, 0, 9, 0.00,60.00,Sunday
141,55707879.042387776
190,0.0
2,1, 1, 1, 0,10, 0.00,60.00,Sunday
141,55274484.1690161
190,0.0
2,1, 1, 1, 0,11, 0.00,60.00,Sunday
141,54135352.62324917
190,0.0
2,1, 1, 1, 0,12, 0.00,60.00,Sunday
141,52282257.11541522
190,0.0
2,1, 1, 1, 0,13, 0.00,60.00,Sunday
141,51394319.611183815
190,0.0
2,1, 1, 1, 0,14, 0.00,60.00,Sunday
141,50157528.39415426
190,0.0
2,1, 1, 1, 0,15, 0.00,60.00,Sunday
141,49309734.66789803
190,0.0
2,1, 1, 1, 0,16, 0.00,60.00,Sunday
141,50208221.52648099
190,0.0
2,1, 1, 1, 0,17, 0.00,60.00,Sunday
141,51316165.15064068
190,0.0
2,1, 1, 1, 0,18, 0.00,60.00,Sunday
141,51664019.254641116
190,0.0
2,1, 1, 1, 0,19, 0.00,60.00,Sunday
141,51953619.71727525
190,0.0
2,1, 1, 1, 0,20, 0.00,60.00,Sunday
141,51866942.39476275
190,0.0
2,1, 1, 1, 0,21, 0.00,60.00,Sunday
141,51648230.3724111
190,0.0
2,1, 1, 1, 0,22, 0.00,60.00,Sunday
141,51725053.08904566
190,0.0
2,1, 1, 1, 0,23, 0.00,60.00,Sunday
141,50366477.628453314
190,0.0
2,1, 1, 1, 0,24, 0.00,60.00,Sunday
141,49347635.22817788
190,0.0
2,2, 1, 2, 0, 1, 0.00,60.00,Monday
141,49483500.73256904
190,0.0
2,2, 1, 2, 0, 2, 0.00,60.00,Monday
141,48123435.14446505
190,0.0
2,2, 1, 2, 0, 3, 0.00,60.00,Monday
141,47075952.37424933
190,0.0
2,2, 1, 2, 0, 4, 0.00,60.00,Monday
141,46020094.0276669
190,0.0
2,2, 1, 2, 0, 5, 0.00,60.00,Monday
141,43743772.13208758
190,0.0
2,2, 1, 2, 0, 6, 0.00,60.00,Monday
141,42654289.39820723
190,0.0
2,2, 1, 2, 0, 7, 0.00,60.00,Monday
141,40955856.52456178
190,0.0
2,2, 1, 2, 0, 8, 0.00,60.00,Monday
141,38890943.37713741
190,0.0
2,2, 1, 2, 0, 9, 0.00,60.00,Monday
141,39519703.30286698
190,0.0
2,2, 1, 2, 0,10, 0.00,60.00,Monday
141,41046971.10036892
190,0.0
2,2, 1, 2, 0,11, 0.00,60.00,Monday
141,42081174.1808517
190,0.0
2,2, 1, 2, 0,12, 0.00,60.00,Monday
141,41191800.89428262
190,0.0
2,2, 1, 2, 0,13, 0.00,60.00,Monday
141,40810174.84940464
190,0.0
2,2, 1, 2, 0,14, 0.00,60.00,Monday
141,41845096.76483013
190,0.0
2,2, 1, 2, 0,15, 0.00,60.00,Monday
141,42256687.06636682
190,0.0
2,2, 1, 2, 0,16, 0.00,60.00,Monday
141,43198711.050992884
190,0.0
2,2, 1, 2, 0,17, 0.00,60.00,Monday
141,44110246.60691992
190,0.0
2,2, 1, 2, 0,18, 0.00,60.00,Monday
141,44214345.101812854
190,0.0
2,2, 1, 2, 0,19, 0.00,60.00,Monday
141,45219475.763138905
190,0.0
2,2, 1, 2, 0,20, 0.00,60.00,Monday
141,46137213.73752959
190,0.0
2,2, 1, 2, 0,21, 0.00,60.00,Monday
141,46225884.39776607
190,0.0
2,2, 1, 2, 0,22, 0.00,60.00,Monday
141,46128710.54144441
190,0.0
2,2, 1, 2, 0,23, 0.00,60.00,Monday
141,46105761.6021655
190,0.0
2,2, 1, 2, 0,24, 0.00,60.00,Monday
141,46112813.57541548
190,0.0
2,3, 1, 3, 0, 1, 0.00,60.00,Tuesday
141,46163654.58253304
190,0.0
2,3, 1, 3, 0, 2, 0.00,60.00,Tuesday
141,46131768.049804345
190,0.0
2,3, 1, 3, 0, 3, 0.00,60.00,Tuesday
141,46077988.455314755
190,0.0
2,3, 1, 3, 0, 4, 0.00,60.00,Tuesday
141,46237699.15057786
190,0.0
2,3, 1, 3, 0, 5, 0.00,60.00,Tuesday
141,47499739.90520165
190,0.0
2,3, 1, 3, 0, 6, 0.00,60.00,Tuesday
141,48325525.67407718
190,0.0
2,3, 1, 3, 0, 7, 0.00,60.00,Tuesday
141,48734788.13013669
190,0.0
2,3, 1, 3, 0, 8, 0.00,60.00,Tuesday
141,48649039.23757607
190,0.0
2,3, 1, 3, 0, 9, 0.00,60.00,Tuesday
141,49702598.5201241
190,0.0
2,3, 1, 3, 0,10, 0.00,60.00,Tuesday
141,50226686.16999599
190,0.0
2,3, 1, 3, 0,11, 0.00,60.00,Tuesday
141,50383358.05448885
190,0.0
2,3, 1, 3, 0,12, 0.00,60.00,Tuesday
141,50724605.01870072
190,0.0
2,3, 1, 3, 0,13, 0.00,60.00,Tuesday
141,52327627.56142214
190,0.0
2,3, 1, 3, 0,14, 0.00,60.00,Tuesday
141,53216919.186030306
190,0.0
2,3, 1, 3, 0,15, 0.00,60.00,Tuesday
141,53048716.73054429
190,0.0
2,3, 1, 3, 0,16, 0.00,60.00,Tuesday
141,52895607.32574345
190,0.0
2,3, 1, 3, 0,17, 0.00,60.00,Tuesday
141,52963070.26955702
190,0.0
2,3, 1, 3, 0,18, 0.00,60.00,Tuesday
141,53103354.0968639
190,0.0
2,3, 1, 3, 0,19, 0.00,60.00,Tuesday
141,52858965.21756267
190,0.0
2,3, 1, 3, 0,20, 0.00,60.00,Tuesday
141,51627848.21790989
190,0.0
2,3, 1, 3, 0,21, 0.00,60.00,Tuesday
141,48289003.2648349
190,0.0
2,3, 1, 3, 0,22, 0.00,60.00,Tuesday
141,46499988.26295129
190,0.0
2,3, 1, 3, 0,23, 0.00,60.00,Tuesday
141,47784819.22120044
190,0.0
2,3, 1, 3, 0,24, 0.00,60.00,Tuesday
141,49974355.30739821
190,0.0
2,4, 1, 4, 0, 1, 0.00,60.00,Wednesday
141,51070658.80933416
190,0.0
2,4, 1, 4, 0, 2, 0.00,60.00,Wednesday
141,50908878.054719
190,0.0
2,4, 1, 4, 0, 3, 0.00,60.00,Wednesday
141,50589055.48921814
190,0.0
2,4, 1, 4, 0, 4, 0.00,60.00,Wednesday
141,50965955.525308885
190,0.0
2,4, 1, 4, 0, 5, 0.00,60.00,Wednesday
141,52424971.73941979
190,0.0
2,4, 1, 4, 0, 6, 0.00,60.00,Wednesday
141,52057330.689369805
190,0.0
2,4, 1, 4, 0, 7, 0.00,60.00,Wednesday
141,52004329.63398813
190,0.0
2,4, 1, 4, 0, 8, 0.00,60.00,Wednesday
141,52608537.142259024
190,0.0
2,4, 1, 4, 0, 9, 0.00,60.00,Wednesday
141,53056969.79226302
190,0.0
2,4, 1, 4, 0,10, 0.00,60.00,Wednesday
141,53427334.378842995
190,0.0
2,4, 1, 4, 0,11, 0.00,60.00,Wednesday
141,50838570.025002815
190,0.0
2,4, 1, 4, 0,12, 0.00,60.00,Wednesday
141,46435107.76741843
190,0.0
2,4, 1, 4, 0,13, 0.00,60.00,Wednesday
141,45279679.87613497
190,0.0
2,4, 1, 4, 0,14, 0.00,60.00,Wednesday
141,45156138.38067231
190,0.0
2,4, 1, 4, 0,15, 0.00,60.00,Wednesday
141,44764599.72409612
190,0.0
2,4, 1, 4, 0,16, 0.00,60.00,Wednesday
141,46615574.32082373
190,0.0
2,4, 1, 4, 0,17, 0.00,60.00,Wednesday
141,49902398.99417633
190,0.0
2,4, 1, 4, 0,18, 0.00,60.00,Wednesday
141,52742100.91430878
190,0.0
2,4, 1, 4, 0,19, 0.00,60.00,Wednesday
141,55615840.1564811
190,0.0
2,4, 1, 4, 0,20, 0.00,60.00,Wednesday
141,57105802.134230435
190,0.0
2,4, 1, 4, 0,21, 0.00,60.00,Wednesday
141,57752919.891422585
190,0.0
2,4, 1, 4, 0,22, 0.00,60.00,Wednesday
141,59099122.37078893
190,0.0
2,4, 1, 4, 0,23, 0.00,60.00,Wednesday
141,58429343.471269175
190,0.0
2,4, 1, 4, 0,24, 0.00,60.00,Wednesday
141,57339937.38247544
190,0.0
2,5, 1, 5, 0, 1, 0.00,60.00,Thursday
141,57649940.28561274
190,0.0
2,5, 1, 5, 0, 2, 0.00,60.00,Thursday
141,56890623.42145945
190,0.0
2,5, 1, 5, 0, 3, 0.00,60.00,Thursday
141,56170095.72855522
190,0.0
2,5, 1, 5, 0, 4, 0.00,60.00,Thursday
141,56288929.729097575
190,0.0
2,5, 1, 5, 0, 5, 0.00,60.00,Thursday
141,55514656.367226064
190,0.0
2,5, 1, 5, 0, 6, 0.00,60.00,Thursday
141,55212763.344483495
190,0.0
2,5, 1, 5, 0, 7, 0.00,60.00,Thursday
141,55776002.35807566
190,0.0
2,5, 1, 5, 0, 8, 0.00,60.00,Thursday
141,56286903.4183561
190,0.0
2,5, 1, 5, 0, 9, 0.00,60.00,Thursday
141,56509985.02051797
190,0.0
2,5, 1, 5, 0,10, 0.00,60.00,Thursday
141,57428634.648178056
190,0.0
2,5, 1, 5, 0,11, 0.00,60.00,Thursday
141,57256491.668090016
190,0.0
2,5, 1, 5, 0,12, 0.00,60.00,Thursday
141,55400155.4969866
190,0.0
2,5, 1, 5, 0,13, 0.00,60.00,Thursday
141,54775805.364199445
190,0.0
2,5, 1, 5, 0,14, 0.00,60.00,Thursday
141,53445061.16148405
190,0.0
2,5, 1, 5, 0,15, 0.00,60.00,Thursday
141,52389469.091060355
190,0.0
2,5, 1, 5, 0,16, 0.00,60.00,Thursday
141,53293901.03699398
190,0.0
2,5, 1, 5, 0,17, 0.00,60.00,Thursday
141,53073786.807234615
190,0.0
2,5, 1, 5, 0,18, 0.00,60.00,Thursday
141,52468240.89694677
190,0.0
2,5, 1, 5, 0,19, 0.00,60.00,Thursday
141,52766833.57953132
190,0.0
2,5, 1, 5, 0,20, 0.00,60.00,Thursday
141,52655532.35728283
190,0.0
2,5, 1, 5, 0,21, 0.00,60.00,Thursday
141,52401052.04541381
190,0.0
2,5, 1, 5, 0,22, 0.00,60.00,Thursday
141,52383863.51691037
190,0.0
2,5, 1, 5, 0,23, 0.00,60.00,Thursday
141,52614337.715156645
190,0.0
2,5, 1, 5, 0,24, 0.00,60.00,Thursday
141,52872008.83702238
190,0.0
2,6, 1, 6, 0, 1, 0.00,60.00,Friday
141,53026679.02052723
190,0.0
2,6, 1, 6, 0, 2, 0.00,60.00,Friday
141,53176690.160919964
190,0.0
2,6, 1, 6, 0, 3, 0.00,60.00,Friday
141,54400046.74616669
190,0.0
2,6, 1, 6, 0, 4, 0.00,60.00,Friday
141,55587766.36676
190,0.0
2,6, 1, 6, 0, 5, 0.00,60.00,Friday
141,56192604.633867085
190,0.0
2,6, 1, 6, 0, 6, 0.00,60.00,Friday
141,56939630.924887106
190,0.0
2,6, 1, 6, 0, 7, 0.00,60.00,Friday
141,58061803.065926015
190,0.0
2,6, 1, 6, 0, 8, 0.00,60.00,Friday
141,59124429.38414338
190,0.0
2,6, 1, 6, 0, 9, 0.00,60.00,Friday
141,60414027.93471475
190,0.0
2,6, 1, 6, 0,10, 0.00,60.00,Friday
141,61175264.26033896
190,0.0
2,6, 1, 6, 0,11, 0.00,60.00,Friday
141,60289603.59065473
190,0.0
2,6, 1, 6, 0,12, 0.00,60.00,Friday
141,58920866.58723751
190,0.0
2,6, 1, 6, 0,13, 0.00,60.00,Friday
141,58280276.96625927
190,0.0
2,6, 1, 6, 0,14, 0.00,60.00,Friday
141,58034678.63024563
190,0.0
2,6, 1, 6, 0,15, 0.00,60.00,Friday
141,57689410.31858867
190,0.0
2,6, 1, 6, 0,16, 0.00,60.00,Friday
141,56856571.66848853
190,0.0
2,6, 1, 6, 0,17, 0.00,60.00,Friday
141,55990155.12129891
190,0.0
2,6, 1, 6, 0,18, 0.00,60.00,Friday
141,55579338.4436246
190,0.0
2,6, 1, 6, 0,19, 0.00,60.00,Friday
141,55088263.38156628
190,0.0
2,6, 1, 6, 0,20, 0.00,60.00,Friday
141,53881632.74804179
190,0.0
2,6, 1, 6, 0,21, 0.00,60.00,Friday
141,50864118.53053786
190,0.0
2,6, 1, 6, 0,22, 0.00,60.00,Friday
141,47253214.68714522
190,0.0
2,6, 1, 6, 0,23, 0.00,60.00,Friday
141,45635886.78136803
190,0.0
2,6, 1, 6, 0,24, 0.00,60.00,Friday
141,45986022.54247748
190,0.0
2,7, 1, 7, 0, 1, 0.00,60.00,Saturday
141,48836058.83141856
190,0.0
2,7, 1, 7, 0, 2, 0.00,60.00,Saturday
141,51676167.99610214
190,0.0
2,7, 1, 7, 0, 3, 0.00,60.00,Saturday
141,51262946.306967005
190,0.0
2,7, 1, 7, 0, 4, 0.00,60.00,Saturday
141,51478239.14550277
190,0.0
2,7, 1, 7, 0, 5, 0.00,60.00,Saturday
141,53405925.58515753
190,0.0
2,7, 1, 7, 0, 6, 0.00,60.00,Saturday
141,54909453.93326978
190,0.0
2,7, 1, 7, 0, 7, 0.00,60.00,Saturday
141,55784118.170949444
190,0.0
2,7, 1, 7, 0, 8, 0.00,60.00,Saturday
141,56209400.59967053
190,0.0
2,7, 1, 7, 0, 9, 0.00,60.00,Saturday
141,55111176.937211685
190,0.0
2,7, 1, 7, 0,10, 0.00,60.00,Saturday
141,54133440.734502055
190,0.0
2,7, 1, 7, 0,11, 0.00,60.00,Saturday
141,51277529.542200536
190,0.0
2,7, 1, 7, 0,12, 0.00,60.00,Saturday
141,48410424.37471359
190,0.0
2,7, 1, 7, 0,13, 0.00,60.00,Saturday
141,46349062.4266435
190,0.0
2,7, 1, 7, 0,14, 0.00,60.00,Saturday
141,45348062.3467691
190,0.0
2,7, 1, 7, 0,15, 0.00,60.00,Saturday
141,45885035.27900091
190,0.0
2,7, 1, 7, 0,16, 0.00,60.00,Saturday
141,46928349.947781794
190,0.0
2,7, 1, 7, 0,17, 0.00,60.00,Saturday
141,47794937.16301981
190,0.0
2,7, 1, 7, 0,18, 0.00,60.00,Saturday
141,49230228.432564534
190,0.0
2,7, 1, 7, 0,19, 0.00,60.00,Saturday
141,50539657.03848702
190,0.0
2,7, 1, 7, 0,20, 0.00,60.00,Saturday
141,51771101.56450531
190,0.0
2,7, 1, 7, 0,21, 0.00,60.00,Saturday
141,52612362.75665707
190,0.0
2,7, 1, 7, 0,22, 0.00,60.00,Saturday
141,52567087.55373791
190,0.0
2,7, 1, 7, 0,23, 0.00,60.00,Saturday
141,52635646.02237695
190,0.0
2,7, 1, 7, 0,24, 0.00,60.00,Saturday
141,52453980.051793054
190,0.0
2,8, 1, 8, 0, 1, 0.00,60.00,Sunday
141,51504800.59249306
190,0.0
2,8, 1, 8, 0, 2, 0.00,60.00,Sunday
141,50419737.972143225
190,0.0
2,8, 1, 8, 0, 3, 0.00,60.00,Sunday
141,49440824.40570198
190,0.0
2,8, 1, 8, 0, 4, 0.00,60.00,Sunday
141,48086679.22667705
190,0.0
2,8, 1, 8, 0, 5, 0.00,60.00,Sunday
141,46468261.23924721
190,0.0
2,8, 1, 8, 0, 6, 0.00,60.00,Sunday
141,45255726.11979655
190,0.0
2,8, 1, 8, 0, 7, 0.00,60.00,Sunday
141,44333793.05956776
190,0.0
2,8, 1, 8, 0, 8, 0.00,60.00,Sunday
141,43549721.43788116
190,0.0
2,8, 1, 8, 0, 9, 0.00,60.00,Sunday
141,42737240.079433285
190,0.0
2,8, 1, 8, 0,10, 0.00,60.00,Sunday
141,42478210.6465719
190,0.0
2,8, 1, 8, 0,11, 0.00,60.00,Sunday
141,42281793.89353665
190,0.0
2,8, 1, 8, 0,12, 0.00,60.00,Sunday
141,42446725.01396975
190,0.0
2,8, 1, 8, 0,13, 0.00,60.00,Sunday
141,42296514.21149916
190,0.0
2,8, 1, 8, 0,14, 0.00,60.00,Sunday
141,42483724.90269782
190,0.0
2,8, 1, 8, 0,15, 0.00,60.00,Sunday
141,44230944.416317336
190,0.0
2,8, 1, 8, 0,16, 0.00,60.00,Sunday
141,45481589.86179138
190,0.0
2,8, 1, 8, 0,17, 0.00,60.00,Sunday
141,45523843.926837035
190,0.0
2,8, 1, 8, 0,18, 0.00,60.00,Sunday
141,46057873.55124447
190,0.0
2,8, 1, 8, 0,19, 0.00,60.00,Sunday
141,45723938.47872183
190,0.0
2,8, 1, 8, 0,20, 0.00,60.00,Sunday
141,44631109.62760036
190,0.0
2,8, 1, 8, 0,21, 0.00,60.00,Sunday
141,43838102.447579026
190,0.0
2,8, 1, 8, 0,22, 0.00,60.00,Sunday
141,44029340.128073625
190,0.0
2,8, 1, 8, 0,23, 0.00,60.00,Sunday
141,44212789.614447646
190,0.0
2,8, 1, 8, 0,24, 0.00,60.00,Sunday
141,44827403.71936177
190,0.0
2,9, 1, 9, 0, 1, 0.00,60.00,Monday
141,44938754.006522566
190,0.0
2,9, 1, 9, 0, 2, 0.00,60.00,Monday
141,45005829.15293221
190,0.0
2,9, 1, 9, 0, 3, 0.00,60.00,Monday
141,44850910.99207338
190,0.0
2,9, 1, 9, 0, 4, 0.00,60.00,Monday
141,44466649.283037
190,0.0
2,9, 1, 9, 0, 5, 0.00,60.00,Monday
141,43606077.819210425
190,0.0
2,9, 1, 9, 0, 6, 0.00,60.00,Monday
141,42740552.0510836
190,0.0
2,9, 1, 9, 0, 7, 0.00,60.00,Monday
141,42124883.4756917
190,0.0
2,9, 1, 9, 0, 8, 0.00,60.00,Monday
141,41803887.03568937
190,0.0
2,9, 1, 9, 0, 9, 0.00,60.00,Monday
141,40884646.832962796
190,0.0
2,9, 1, 9, 0,10, 0.00,60.00,Monday
141,38612835.91822225
190,0.0
2,9, 1, 9, 0,11, 0.00,60.00,Monday
141,36679728.20325282
190,0.0
2,9, 1, 9, 0,12, 0.00,60.00,Monday
141,35619079.0989847
190,0.0
2,9, 1, 9, 0,13, 0.00,60.00,Monday
141,34744596.08103224
190,0.0
2,9, 1, 9, 0,14, 0.00,60.00,Monday
141,34109826.09778778
190,0.0
2,9, 1, 9, 0,15, 0.00,60.00,Monday
141,33897850.16053945
190,0.0
2,9, 1, 9, 0,16, 0.00,60.00,Monday
141,34365278.24526182
190,0.0
2,9, 1, 9, 0,17, 0.00,60.00,Monday
141,35923720.13122078
190,0.0
2,9, 1, 9, 0,18, 0.00,60.00,Monday
141,37387443.058977
190,0.0
2,9, 1, 9, 0,19, 0.00,60.00,Monday
141,37252589.24580814
190,0.0
2,9, 1, 9, 0,20, 0.00,60.00,Monday
141,35171977.17547397
190,0.0
2,9, 1, 9, 0,21, 0.00,60.00,Monday
141,33066775.441567957
190,0.0
2,9, 1, 9, 0,22, 0.00,60.00,Monday
141,31765264.633512866
190,0.0
2,9, 1, 9, 0,23, 0.00,60.00,Monday
141,31500726.211789485
190,0.0
2,9, 1, 9, 0,24, 0.00,60.00,Monday
141,31604631.406376936
190,0.0
2,10, 1,10, 0, 1, 0.00,60.00,Tuesday
141,32149681.296693154
190,0.0
2,10, 1,10, 0, 2, 0.00,60.00,Tuesday
141,32512869.360960934
190,0.0
2,10, 1,10, 0, 3, 0.00,60.00,Tuesday
141,32553539.571777314
190,0.0
2,10, 1,10, 0, 4, 0.00,60.00,Tuesday
141,33162658.641405027
190,0.0
2,10, 1,10, 0, 5, 0.00,60.00,Tuesday
141,33367384.853595275
190,0.0
2,10, 1,10, 0, 6, 0.00,60.00,Tuesday
141,33413513.440170087
190,0.0
2,10, 1,10, 0, 7, 0.00,60.00,Tuesday
141,33473953.32998898
190,0.0
2,10, 1,10, 0, 8, 0.00,60.00,Tuesday
141,33226935.841129906
190,0.0
2,10, 1,10, 0, 9, 0.00,60.00,Tuesday
141,32884828.936298344
190,0.0
2,10, 1,10, 0,10, 0.00,60.00,Tuesday
141,32428411.191630326
190,0.0
2,10, 1,10, 0,11, 0.00,60.00,Tuesday
141,31771577.516448945
190,0.0
2,10, 1,10, 0,12, 0.00,60.00,Tuesday
141,31024564.18337038
190,0.0
2,10, 1,10, 0,13, 0.00,60.00,Tuesday
141,30896026.850147627
190,0.0
2,10, 1,10, 0,14, 0.00,60.00,Tuesday
141,33578202.23474591
190,0.0
2,10, 1,10, 0,15, 0.00,60.00,Tuesday
141,35746874.52098722
190,0.0
2,10, 1,10, 0,16, 0.00,60.00,Tuesday
141,37081525.321596935
190,0.0
2,10, 1,10, 0,17, 0.00,60.00,Tuesday
141,38456287.03842839
190,0.0
2,10, 1,10, 0,18, 0.00,60.00,Tuesday
141,40241242.58748252
190,0.0
2,10, 1,10, 0,19, 0.00,60.00,Tuesday
141,41186286.30118869
190,0.0
2,10, 1,10, 0,20, 0.00,60.00,Tuesday
141,41898773.030811206
190,0.0
2,10, 1,10, 0,21, 0.00,60.00,Tuesday
141,43032746.19265835
190,0.0
2,10, 1,10, 0,22, 0.00,60.00,Tuesday
141,43693466.2225358
190,0.0
2,10, 1,10, 0,23, 0.00,60.00,Tuesday
141,43324189.72412677
190,0.0
2,10, 1,10, 0,24, 0.00,60.00,Tuesday
141,44104011.15007403
190,0.0
2,11, 1,11, 0, 1, 0.00,60.00,Wednesday
141,44279563.38347423
190,0.0
2,11, 1,11, 0, 2, 0.00,60.00,Wednesday
141,44467343.97232924
190,0.0
2,11, 1,11, 0, 3, 0.00,60.00,Wednesday
141,44957505.21623612
190,0.0
2,11, 1,11, 0, 4, 0.00,60.00,Wednesday
141,44487325.76503188
190,0.0
2,11, 1,11, 0, 5, 0.00,60.00,Wednesday
141,44187351.416293666
190,0.0
2,11, 1,11, 0, 6, 0.00,60.00,Wednesday
141,44147827.16002366
190,0.0
2,11, 1,11, 0, 7, 0.00,60.00,Wednesday
141,44423725.26782909
190,0.0
2,11, 1,11, 0, 8, 0.00,60.00,Wednesday
141,44736163.60672411
190,0.0
2,11, 1,11, 0, 9, 0.00,60.00,Wednesday
141,44752967.91461767
190,0.0
2,11, 1,11, 0,10, 0.00,60.00,Wednesday
141,44564058.81391926
190,0.0
2,11, 1,11, 0,11, 0.00,60.00,Wednesday
141,44148858.27834831
190,0.0
2,11, 1,11, 0,12, 0.00,60.00,Wednesday
141,43380158.61281857
190,0.0
2,11, 1,11, 0,13, 0.00,60.00,Wednesday
141,42807839.90312906
190,0.0
2,11, 1,11, 0,14, 0.00,60.00,Wednesday
141,42623459.503479615
190,0.0
2,11, 1,11, 0,15, 0.00,60.00,Wednesday
141,42643207.685411684
190,0.0
2,11, 1,11, 0,16, 0.00,60.00,Wednesday
141,42746836.09627168
190,0.0
2,11, 1,11, 0,17, 0.00,60.00,Wednesday
141,42322513.187848404
190,0.0
2,11, 1,11, 0,18, 0.00,60.00,Wednesday
141,41896550.75625367
190,0.0
2,11, 1,11, 0,19, 0.00,60.00,Wednesday
141,41591701.57237048
190,0.0
2,11, 1,11, 0,20, 0.00,60.00,Wednesday
141,41554232.4513498
190,0.0
2,11, 1,11, 0,21, 0.00,60.00,Wednesday
141,41525855.65994857
190,0.0
2,11, 1,11, 0,22, 0.00,60.00,Wednesday
141,40535877.51914962
190,0.0
2,11, 1,11, 0,23, 0.00,60.00,Wednesday
141,39763539.21827482
190,0.0
2,11, 1,11, 0,24, 0.00,60.00,Wednesday
141,39795347.45451179
190,0.0
2,12, 1,12, 0, 1, 0.00,60.00,Thursday
141,40129578.14438683
190,0.0
2,12, 1,12, 0, 2, 0.00,60.00,Thursday
141,40158799.726680025
190,0.0
2,12, 1,12, 0, 3, 0.00,60.00,Thursday
141,39915455.20151019
190,0.0
2,12, 1,12, 0, 4, 0.00,60.00,Thursday
141,39934280.88126341
190,0.0
2,12, 1,12, 0, 5, 0.00,60.00,Thursday
141,40260963.92876591
190,0.0
2,12, 1,12, 0, 6, 0.00,60.00,Thursday
141,41050110.71849738
190,0.0
2,12, 1,12, 0, 7, 0.00,60.00,Thursday
141,41474267.363211155
190,0.0
2,12, 1,12, 0, 8, 0.00,60.00,Thursday
141,41574093.0360446
190,0.0
2,12, 1,12, 0, 9, 0.00,60.00,Thursday
141,41006896.72102823
190,0.0
2,12, 1,12, 0,10, 0.00,60.00,Thursday
141,39779798.04755459
190,0.0
2,12, 1,12, 0,11, 0.00,60.00,Thursday
141,38844068.05798238
190,0.0
2,12, 1,12, 0,12, 0.00,60.00,Thursday
141,38306751.47231664
190,0.0
2,12, 1,12, 0,13, 0.00,60.00,Thursday
141,37603347.2539706
190,0.0
2,12, 1,12, 0,14, 0.00,60.00,Thursday
141,36843503.98919308
190,0.0
2,12, 1,12, 0,15, 0.00,60.00,Thursday
141,36806746.42213046
190,0.0
2,12, 1,12, 0,16, 0.00,60.00,Thursday
141,37096779.32689279
190,0.0
2,12, 1,12, 0,17, 0.00,60.00,Thursday
141,38556457.30967229
190,0.0
2,12, 1,12, 0,18, 0.00,60.00,Thursday
141,39403879.31528913
190,0.0
2,12, 1,12, 0,19, 0.00,60.00,Thursday
141,39041230.53290308
190,0.0
2,12, 1,12, 0,20, 0.00,60.00,Thursday
141,38210596.213897176
190,0.0
2,12, 1,12, 0,21, 0.00,60.00,Thursday
141,37862594.519567005
190,0.0
2,12, 1,12, 0,22, 0.00,60.00,Thursday
141,37295973.6302349
190,0.0
2,12, 1,12, 0,23, 0.00,60.00,Thursday
141,37074551.469111174
190,0.0
2,12, 1,12, 0,24, 0.00,60.00,Thursday
141,37100489.1184687
190,0.0
2,13, 1,13, 0, 1, 0.00,60.00,Friday
141,36726351.526121505
190,0.0
2,13, 1,13, 0, 2, 0.00,60.00,Friday
141,36381904.55463705
190,0.0
2,13, 1,13, 0, 3, 0.00,60.00,Friday
141,35873483.893362254
190,0.0
2,13, 1,13, 0, 4, 0.00,60.00,Friday
141,35557047.24569954
190,0.0
2,13, 1,13, 0, 5, 0.00,60.00,Friday
141,35509083.48903614
190,0.0
2,13, 1,13, 0, 6, 0.00,60.00,Friday
141,35585573.50943479
190,0.0
2,13, 1,13, 0, 7, 0.00,60.00,Friday
141,35870478.234591775
190,0.0
2,13, 1,13, 0, 8, 0.00,60.00,Friday
141,35865686.235752925
190,0.0
2,13, 1,13, 0, 9, 0.00,60.00,Friday
141,35472279.2600552
190,0.0
2,13, 1,13, 0,10, 0.00,60.00,Friday
141,36362528.323873624
190,0.0
2,13, 1,13, 0,11, 0.00,60.00,Friday
141,37361714.26999402
190,0.0
2,13, 1,13, 0,12, 0.00,60.00,Friday
141,37399621.89733317
190,0.0
2,13, 1,13, 0,13, 0.00,60.00,Friday
141,37493883.243766546
190,0.0
2,13, 1,13, 0,14, 0.00,60.00,Friday
141,38097777.15754566
190,0.0
2,13, 1,13, 0,15, 0.00,60.00,Friday
141,38411856.27493117
190,0.0
2,13, 1,13, 0,16, 0.00,60.00,Friday
141,38251045.123094775
190,0.0
2,13, 1,13, 0,17, 0.00,60.00,Friday
141,38000716.382945724
190,0.0
2,13, 1,13, 0,18, 0.00,60.00,Friday
141,37869152.84356707
190,0.0
2,13, 1,13, 0,19, 0.00,60.00,Friday
141,38451308.07785362
190,0.0
2,13, 1,13, 0,20, 0.00,60.00,Friday
141,39507496.847152494
190,0.0
2,13, 1,13, 0,21, 0.00,60.00,Friday
141,40454416.45072328
190,0.0
2,13, 1,13, 0,22, 0.00,60.00,Friday
141,41054177.020466544
190,0.0
2,13, 1,13, 0,23, 0.00,60.00,Friday
141,40832856.34247607
190,0.0
2,13, 1,13, 0,24, 0.00,60.00,Friday
141,43337733.08377676
190,0.0
2,14, 1,14, 0, 1, 0.00,60.00,Saturday
141,45069576.68826705
190,0.0
2,14, 1,14, 0, 2, 0.00,60.00,Saturday
141,44372350.34270075
190,0.0
2,14, 1,14, 0, 3, 0.00,60.00,Saturday
141,44544333.64880306
190,0.0
2,14, 1,14, 0, 4, 0.00,60.00,Saturday
141,44308573.44483411
190,0.0
2,14, 1,14, 0, 5, 0.00,60.00,Saturday
141,44272555.088356905
190,0.0
2,14, 1,14, 0, 6, 0.00,60.00,Saturday
141,46136951.680911705
190,0.0
2,14, 1,14, 0, 7, 0.00,60.00,Saturday
141,47549023.22572924
190,0.0
2,14, 1,14, 0, 8, 0.00,60.00,Saturday
141,47143015.76663115
190,0.0
2,14, 1,14, 0, 9, 0.00,60.00,Saturday
141,47910588.92500575
190,0.0
2,14, 1,14, 0,10, 0.00,60.00,Saturday
141,48932775.09679639
190,0.0
2,14, 1,14, 0,11, 0.00,60.00,Saturday
141,48570323.74115134
190,0.0
2,14, 1,14, 0,12, 0.00,60.00,Saturday
141,48012098.309692875
190,0.0
2,14, 1,14, 0,13, 0.00,60.00,Saturday
141,47012457.60281372
190,0.0
2,14, 1,14, 0,14, 0.00,60.00,Saturday
141,44937593.80195667
190,0.0
2,14, 1,14, 0,15, 0.00,60.00,Saturday
141,44733915.98542912
190,0.0
2,14, 1,14, 0,16, 0.00,60.00,Saturday
141,45282510.45173919
190,0.0
2,14, 1,14, 0,17, 0.00,60.00,Saturday
141,46203244.048267566
190,0.0
2,14, 1,14, 0,18, 0.00,60.00,Saturday
141,47846483.28811955
190,0.0
2,14, 1,14, 0,19, 0.00,60.00,Saturday
141,47921729.29983376
190,0.0
2,14, 1,14, 0,20, 0.00,60.00,Saturday
141,48166676.61534153
190,0.0
2,14, 1,14, 0,21, 0.00,60.00,Saturday
141,47895056.74701427
190,0.0
2,14, 1,14, 0,22, 0.00,60.00,Saturday
141,47370281.56200858
190,0.0
2,14, 1,14, 0,23, 0.00,60.00,Saturday
141,47001789.77742331
190,0.0
2,14, 1,14, 0,24, 0.00,60.00,Saturday
141,46867661.94044637
190,0.0
2,15, 1,15, 0, 1, 0.00,60.00,Sunday
141,45944448.36368003
190,0.0
2,15, 1,15, 0, 2, 0.00,60.00,Sunday
141,43709402.94654226
190,0.0
2,15, 1,15, 0, 3, 0.00,60.00,Sunday
141,42652504.835123956
190,0.0
2,15, 1,15, 0, 4, 0.00,60.00,Sunday
141,41930876.607914194
190,0.0
2,15, 1,15, 0, 5, 0.00,60.00,Sunday
141,40556326.70798318
190,0.0
2,15, 1,15, 0, 6, 0.00,60.00,Sunday
141,39106204.12207634
190,0.0
2,15, 1,15, 0, 7, 0.00,60.00,Sunday
141,37673309.971321374
190,0.0
2,15, 1,15, 0, 8, 0.00,60.00,Sunday
141,36742658.71582679
190,0.0
2,15, 1,15, 0, 9, 0.00,60.00,Sunday
141,36043340.41953138
190,0.0
2,15, 1,15, 0,10, 0.00,60.00,Sunday
141,35981065.77376976
190,0.0
2,15, 1,15, 0,11, 0.00,60.00,Sunday
141,36813022.97340079
190,0.0
2,15, 1,15, 0,12, 0.00,60.00,Sunday
141,38894344.18327223
190,0.0
2,15, 1,15, 0,13, 0.00,60.00,Sunday
141,40425154.16534514
190,0.0
2,15, 1,15, 0,14, 0.00,60.00,Sunday
141,41049669.11397442
190,0.0
2,15, 1,15, 0,15, 0.00,60.00,Sunday
141,41280886.53496711
190,0.0
2,15, 1,15, 0,16, 0.00,60.00,Sunday
141,40746818.89316393
190,0.0
2,15, 1,15, 0,17, 0.00,60.00,Sunday
141,40362363.90109121
190,0.0
2,15, 1,15, 0,18, 0.00,60.00,Sunday
141,40449943.730423935
190,0.0
2,15, 1,15, 0,19, 0.00,60.00,Sunday
141,40748748.29642339
190,0.0
2,15, 1,15, 0,20, 0.00,60.00,Sunday
141,41147045.00542765
190,0.0
2,15, 1,15, 0,21, 0.00,60.00,Sunday
141,42047532.87853907
190,0.0
2,15, 1,15, 0,22, 0.00,60.00,Sunday
141,42425763.281561986
190,0.0
2,15, 1,15, 0,23, 0.00,60.00,Sunday
141,42430817.39988207
190,0.0
2,15, 1,15, 0,24, 0.00,60.00,Sunday
141,42625686.081640385
190,0.0
2,16, 1,16, 0, 1, 0.00,60.00,Monday
141,43454091.50834727
190,0.0
2,16, 1,16, 0, 2, 0.00,60.00,Monday
141,44232980.28085741
190,0.0
2,16, 1,16, 0, 3, 0.00,60.00,Monday
141,44661403.04199317
190,0.0
2,16, 1,16, 0, 4, 0.00,60.00,Monday
141,44973552.68738104
190,0.0
2,16, 1,16, 0, 5, 0.00,60.00,Monday
141,45459875.99825823
190,0.0
2,16, 1,16, 0, 6, 0.00,60.00,Monday
141,45883196.92186496
190,0.0
2,16, 1,16, 0, 7, 0.00,60.00,Monday
141,46767630.42645117
190,0.0
2,16, 1,16, 0, 8, 0.00,60.00,Monday
141,47604939.41254981
190,0.0
2,16, 1,16, 0, 9, 0.00,60.00,Monday
141,47970923.060813405
190,0.0
2,16, 1,16, 0,10, 0.00,60.00,Monday
141,47994000.76980609
190,0.0
2,16, 1,16, 0,11, 0.00,60.00,Monday
141,46156053.75428576
190,0.0
2,16, 1,16, 0,12, 0.00,60.00,Monday
141,44540735.58731805
190,0.0
2,16, 1,16, 0,13, 0.00,60.00,Monday
141,43298575.876673505
190,0.0
2,16, 1,16, 0,14, 0.00,60.00,Monday
141,42493736.857556954
190,0.0
2,16, 1,16, 0,15, 0.00,60.00,Monday
141,42449339.59523843
190,0.0
2,16, 1,16, 0,16, 0.00,60.00,Monday
141,42866626.26697235
190,0.0
2,16, 1,16, 0,17, 0.00,60.00,Monday
141,43816644.54157898
190,0.0
2,16, 1,16, 0,18, 0.00,60.00,Monday
141,45592718.4964516
190,0.0
2,16, 1,16, 0,19, 0.00,60.00,Monday
141,47447274.23949554
190,0.0
2,16, 1,16, 0,20, 0.00,60.00,Monday
141,48380139.53848786
190,0.0
2,16, 1,16, 0,21, 0.00,60.00,Monday
141,49109881.757758714
190,0.0
2,16, 1,16, 0,22, 0.00,60.00,Monday
141,49768595.402404375
190,0.0
2,16, 1,16, 0,23, 0.00,60.00,Monday
141,50770856.62314145
190,0.0
2,16, 1,16, 0,24, 0.00,60.00,Monday
141,50979121.86565534
190,0.0
2,17, 1,17, 0, 1, 0.00,60.00,Tuesday
141,51265055.25284008
190,0.0
2,17, 1,17, 0, 2, 0.00,60.00,Tuesday
141,52470002.54592201
190,0.0
2,17, 1,17, 0, 3, 0.00,60.00,Tuesday
141,53466185.98668481
190,0.0
2,17, 1,17, 0, 4, 0.00,60.00,Tuesday
141,54309747.43543928
190,0.0
2,17, 1,17, 0, 5, 0.00,60.00,Tuesday
141,55256804.93017523
190,0.0
2,17, 1,17, 0, 6, 0.00,60.00,Tuesday
141,56216049.42781403
190,0.0
2,17, 1,17, 0, 7, 0.00,60.00,Tuesday
141,56786870.19655425
190,0.0
2,17, 1,17, 0, 8, 0.00,60.00,Tuesday
141,57091538.28105993
190,0.0
2,17, 1,17, 0, 9, 0.00,60.00,Tuesday
141,57154401.3092638
190,0.0
2,17, 1,17, 0,10, 0.00,60.00,Tuesday
141,55038897.094860286
190,0.0
2,17, 1,17, 0,11, 0.00,60.00,Tuesday
141,51925058.76437377
190,0.0
2,17, 1,17, 0,12, 0.00,60.00,Tuesday
141,49258143.46956745
190,0.0
2,17, 1,17, 0,13, 0.00,60.00,Tuesday
141,47742429.296497814
190,0.0
2,17, 1,17, 0,14, 0.00,60.00,Tuesday
141,47487065.89720708
190,0.0
2,17, 1,17, 0,15, 0.00,60.00,Tuesday
141,48106514.03879315
190,0.0
2,17, 1,17, 0,16, 0.00,60.00,Tuesday
141,49741499.82890632
190,0.0
2,17, 1,17, 0,17, 0.00,60.00,Tuesday
141,51048524.79312579
190,0.0
2,17, 1,17, 0,18, 0.00,60.00,Tuesday
141,51242770.37303833
190,0.0
2,17, 1,17, 0,19, 0.00,60.00,Tuesday
141,51163780.41413599
190,0.0
2,17, 1,17, 0,20, 0.00,60.00,Tuesday
141,51430758.48826568
190,0.0
2,17, 1,17, 0,21, 0.00,60.00,Tuesday
141,51863722.40589764
190,0.0
2,17, 1,17, 0,22, 0.00,60.00,Tuesday
141,51883715.32007549
190,0.0
2,17, 1,17, 0,23, 0.00,60.00,Tuesday
141,51876292.69633998
190,0.0
2,17, 1,17, 0,24, 0.00,60.00,Tuesday
141,52452246.40450516
190,0.0
2,18, 1,18, 0, 1, 0.00,60.00,Wednesday
141,52786225.3572325
190,0.0
2,18, 1,18, 0, 2, 0.00,60.00,Wednesday
141,53005637.61093562
190,0.0
2,18, 1,18, 0, 3, 0.00,60.00,Wednesday
141,53021326.59146759
190,0.0
2,18, 1,18, 0, 4, 0.00,60.00,Wednesday
141,52895483.7576513
190,0.0
2,18, 1,18, 0, 5, 0.00,60.00,Wednesday
141,52875943.07416703
190,0.0
2,18, 1,18, 0, 6, 0.00,60.00,Wednesday
141,52995324.30591904
190,0.0
2,18, 1,18, 0, 7, 0.00,60.00,Wednesday
141,54008254.26341681
190,0.0
2,18, 1,18, 0, 8, 0.00,60.00,Wednesday
141,54287416.17727097
190,0.0
2,18, 1,18, 0, 9, 0.00,60.00,Wednesday
141,54429949.3851141
190,0.0
2,18, 1,18, 0,10, 0.00,60.00,Wednesday
141,54346655.67989143
190,0.0
2,18, 1,18, 0,11, 0.00,60.00,Wednesday
141,53311050.02058944
190,0.0
2,18, 1,18, 0,12, 0.00,60.00,Wednesday
141,52524742.05287203
190,0.0
2,18, 1,18, 0,13, 0.00,60.00,Wednesday
141,52896661.59247912
190,0.0
2,18, 1,18, 0,14, 0.00,60.00,Wednesday
141,53696427.49238253
190,0.0
2,18, 1,18, 0,15, 0.00,60.00,Wednesday
141,54140354.699807584
190,0.0
2,18, 1,18, 0,16, 0.00,60.00,Wednesday
141,55060219.35405521
190,0.0
2,18, 1,18, 0,17, 0.00,60.00,Wednesday
141,55527598.44432827
190,0.0
2,18, 1,18, 0,18, 0.00,60.00,Wednesday
141,55193845.51050711
190,0.0
2,18, 1,18, 0,19, 0.00,60.00,Wednesday
141,55028576.69143897
190,0.0
2,18, 1,18, 0,20, 0.00,60.00,Wednesday
141,55181987.540448725
190,0.0
2,18, 1,18, 0,21, 0.00,60.00,Wednesday
141,55287152.89759927
190,0.0
2,18, 1,18, 0,22, 0.00,60.00,Wednesday
141,55568273.918636434
190,0.0
2,18, 1,18, 0,23, 0.00,60.00,Wednesday
141,55771146.65971797
190,0.0
2,18, 1,18, 0,24, 0.00,60.00,Wednesday
141,56048072.458950266
190,0.0
2,19, 1,19, 0, 1, 0.00,60.00,Thursday
141,55719049.77957812
190,0.0
2,19, 1,19, 0, 2, 0.00,60.00,Thursday
141,55882806.491346896
190,0.0
2,19, 1,19, 0, 3, 0.00,60.00,Thursday
141,56806882.22255516
190,0.0