Program Version,EnergyPlus, Version 24.2.0-94a887817b, YMD=2025.04.24 13:20
1,5,Environment Title[],Latitude[deg],Longitude[deg],Time Zone[],Elevation[m]
2,8,Day of Simulation[],Month[],Day of Month[],DST Indicator[1=yes 0=no],Hour[],StartMinute[],EndMinute[],DayType
3,5,Cumulative Day of Simulation[],Month[],Day of Month[],DST Indicator[1=yes 0=no],DayType  ! When Daily Report Variables Requested
4,2,Cumulative Days of Simulation[],Month[]  ! When Monthly Report Variables Requested
5,1,Cumulative Days of Simulation[] ! When Run Period Report Variables Requested
6,1,Calendar Year of Simulation[] ! When Annual Report Variables Requested
141,1,ZONE_0599100000293523 IDEAL LOADS AIR SYSTEM,Zone Ideal Loads Supply Air Total Heating Energy [J] !Hourly
190,1,ZONE_0599100000293523 IDEAL LOADS AIR SYSTEM,Zone Ideal Loads Supply Air Total Cooling Energy [J] !Hourly
End of Data Dictionary
1,RUN PERIOD 1,  51.96,   4.45,   1.00,  -4.50
2,1, 1, 1, 0, 1, 0.00,60.00,Sunday
141,117067281.96416824
190,0.0
2,1, 1, 1, 0, 2, 0.00,60.00,Sunday
141,120283100.82400358
190,0.0
2,1, 1, 1, 0, 3, 0.00,60.00,Sunday
141,120363942.18287216
190,0.0
2,1, 1, 1, 0, 4, 0.00,60.00,Sunday
141,122795392.4535166
190,0.0
2,1, 1, 1, 0, 5, 0.00,60.00,Sunday
141,124576306.96271786
190,0.0
2,1, 1, 1, 0, 6, 0.00,60.00,Sunday
141,125056469.97046278
190,0.0
2,1, 1, 1, 0, 7, 0.00,60.00,Sunday
141,125715690.98605987
190,0.0
2,1, 1, 1, 0, 8, 0.00,60.00,Sunday
141,125950832.35523137
190,0.0
2,1, 1, 1, 0, 9, 0.00,60.00,Sunday
141,126257796.92662841
190,0.0
2,1, 1, 1, 0,10, 0.00,60.00,Sunday
141,126042443.85239574
190,0.0
2,1, 1, 1, 0,11, 0.00,60.00,Sunday
141,124668470.81674698
190,0.0
2,1, 1, 1, 0,12, 0.00,60.00,Sunday
141,122040739.90680248
190,0.0
2,1, 1, 1, 0,13, 0.00,60.00,Sunday
141,120765653.71572107
190,0.0
2,1, 1, 1, 0,14, 0.00,60.00,Sunday
141,118575425.31378788
190,0.0
2,1, 1, 1, 0,15, 0.00,60.00,Sunday
141,116621475.27619514
190,0.0
2,1, 1, 1, 0,16, 0.00,60.00,Sunday
141,117203360.9901132
190,0.0
2,1, 1, 1, 0,17, 0.00,60.00,Sunday
141,118007888.59550837
190,0.0
2,1, 1, 1, 0,18, 0.00,60.00,Sunday
141,117658431.7894075
190,0.0
2,1, 1, 1, 0,19, 0.00,60.00,Sunday
141,117440775.24253283
190,0.0
2,1, 1, 1, 0,20, 0.00,60.00,Sunday
141,116878807.88035351
190,0.0
2,1, 1, 1, 0,21, 0.00,60.00,Sunday
141,116339327.72622323
190,0.0
2,1, 1, 1, 0,22, 0.00,60.00,Sunday
141,116460410.05359377
190,0.0
2,1, 1, 1, 0,23, 0.00,60.00,Sunday
141,114355162.98544306
190,0.0
2,1, 1, 1, 0,24, 0.00,60.00,Sunday
141,112872913.77855416
190,0.0
2,2, 1, 2, 0, 1, 0.00,60.00,Monday
141,113298705.10883665
190,0.0
2,2, 1, 2, 0, 2, 0.00,60.00,Monday
141,111257874.59877029
190,0.0
2,2, 1, 2, 0, 3, 0.00,60.00,Monday
141,109681191.39824843
190,0.0
2,2, 1, 2, 0, 4, 0.00,60.00,Monday
141,108026132.27693334
190,0.0
2,2, 1, 2, 0, 5, 0.00,60.00,Monday
141,104288979.6858645
190,0.0
2,2, 1, 2, 0, 6, 0.00,60.00,Monday
141,102390478.51686805
190,0.0
2,2, 1, 2, 0, 7, 0.00,60.00,Monday
141,99384403.96600798
190,0.0
2,2, 1, 2, 0, 8, 0.00,60.00,Monday
141,95654900.08032073
190,0.0
2,2, 1, 2, 0, 9, 0.00,60.00,Monday
141,96205006.0752218
190,0.0
2,2, 1, 2, 0,10, 0.00,60.00,Monday
141,98113800.91149254
190,0.0
2,2, 1, 2, 0,11, 0.00,60.00,Monday
141,99129072.98291093
190,0.0
2,2, 1, 2, 0,12, 0.00,60.00,Monday
141,96994715.27216138
190,0.0
2,2, 1, 2, 0,13, 0.00,60.00,Monday
141,95864134.17988761
190,0.0
2,2, 1, 2, 0,14, 0.00,60.00,Monday
141,97317775.43198594
190,0.0
2,2, 1, 2, 0,15, 0.00,60.00,Monday
141,97973696.0569836
190,0.0
2,2, 1, 2, 0,16, 0.00,60.00,Monday
141,99651086.90628935
190,0.0
2,2, 1, 2, 0,17, 0.00,60.00,Monday
141,101406661.0733721
190,0.0
2,2, 1, 2, 0,18, 0.00,60.00,Monday
141,101954463.81716679
190,0.0
2,2, 1, 2, 0,19, 0.00,60.00,Monday
141,104068092.00819805
190,0.0
2,2, 1, 2, 0,20, 0.00,60.00,Monday
141,106110042.31547126
190,0.0
2,2, 1, 2, 0,21, 0.00,60.00,Monday
141,106848680.54504247
190,0.0
2,2, 1, 2, 0,22, 0.00,60.00,Monday
141,107326099.85286453
190,0.0
2,2, 1, 2, 0,23, 0.00,60.00,Monday
141,107962816.9422364
190,0.0
2,2, 1, 2, 0,24, 0.00,60.00,Monday
141,108652874.83331233
190,0.0
2,3, 1, 3, 0, 1, 0.00,60.00,Tuesday
141,109383328.69383223
190,0.0
2,3, 1, 3, 0, 2, 0.00,60.00,Tuesday
141,109929663.07057327
190,0.0
2,3, 1, 3, 0, 3, 0.00,60.00,Tuesday
141,110366795.72822155
190,0.0
2,3, 1, 3, 0, 4, 0.00,60.00,Tuesday
141,111019100.66186722
190,0.0
2,3, 1, 3, 0, 5, 0.00,60.00,Tuesday
141,113305427.08631454
190,0.0
2,3, 1, 3, 0, 6, 0.00,60.00,Tuesday
141,114722441.91542798
190,0.0
2,3, 1, 3, 0, 7, 0.00,60.00,Tuesday
141,115344161.96104522
190,0.0
2,3, 1, 3, 0, 8, 0.00,60.00,Tuesday
141,115077550.41257153
190,0.0
2,3, 1, 3, 0, 9, 0.00,60.00,Tuesday
141,116636195.41519572
190,0.0
2,3, 1, 3, 0,10, 0.00,60.00,Tuesday
141,117315558.97483951
190,0.0
2,3, 1, 3, 0,11, 0.00,60.00,Tuesday
141,117391210.15316343
190,0.0
2,3, 1, 3, 0,12, 0.00,60.00,Tuesday
141,117789164.15168223
190,0.0
2,3, 1, 3, 0,13, 0.00,60.00,Tuesday
141,120324869.64054756
190,0.0
2,3, 1, 3, 0,14, 0.00,60.00,Tuesday
141,121781003.20899042
190,0.0
2,3, 1, 3, 0,15, 0.00,60.00,Tuesday
141,121523128.09058505
190,0.0
2,3, 1, 3, 0,16, 0.00,60.00,Tuesday
141,121259677.61227307
190,0.0
2,3, 1, 3, 0,17, 0.00,60.00,Tuesday
141,121318461.73027146
190,0.0
2,3, 1, 3, 0,18, 0.00,60.00,Tuesday
141,121460657.63455713
190,0.0
2,3, 1, 3, 0,19, 0.00,60.00,Tuesday
141,120947787.12674351
190,0.0
2,3, 1, 3, 0,20, 0.00,60.00,Tuesday
141,118815602.65500307
190,0.0
2,3, 1, 3, 0,21, 0.00,60.00,Tuesday
141,113293638.25378647
190,0.0
2,3, 1, 3, 0,22, 0.00,60.00,Tuesday
141,110453868.2013875
190,0.0
2,3, 1, 3, 0,23, 0.00,60.00,Tuesday
141,112765833.61568809
190,0.0
2,3, 1, 3, 0,24, 0.00,60.00,Tuesday
141,116565399.72623461
190,0.0
2,4, 1, 4, 0, 1, 0.00,60.00,Wednesday
141,118540022.61369652
190,0.0
2,4, 1, 4, 0, 2, 0.00,60.00,Wednesday
141,118498027.93035705
190,0.0
2,4, 1, 4, 0, 3, 0.00,60.00,Wednesday
141,118306954.5994245
190,0.0
2,4, 1, 4, 0, 4, 0.00,60.00,Wednesday
141,119305832.93138713
190,0.0
2,4, 1, 4, 0, 5, 0.00,60.00,Wednesday
141,122035982.84866743
190,0.0
2,4, 1, 4, 0, 6, 0.00,60.00,Wednesday
141,121699596.34358095
190,0.0
2,4, 1, 4, 0, 7, 0.00,60.00,Wednesday
141,121789408.8164222
190,0.0
2,4, 1, 4, 0, 8, 0.00,60.00,Wednesday
141,122879166.5816293
190,0.0
2,4, 1, 4, 0, 9, 0.00,60.00,Wednesday
141,123660564.3439953
190,0.0
2,4, 1, 4, 0,10, 0.00,60.00,Wednesday
141,124295690.44766308
190,0.0
2,4, 1, 4, 0,11, 0.00,60.00,Wednesday
141,120136102.93001813
190,0.0
2,4, 1, 4, 0,12, 0.00,60.00,Wednesday
141,113118667.02999851
190,0.0
2,4, 1, 4, 0,13, 0.00,60.00,Wednesday
141,111477405.93804991
190,0.0
2,4, 1, 4, 0,14, 0.00,60.00,Wednesday
141,111445083.30647877
190,0.0
2,4, 1, 4, 0,15, 0.00,60.00,Wednesday
141,110801238.23380852
190,0.0
2,4, 1, 4, 0,16, 0.00,60.00,Wednesday
141,113670659.72043544
190,0.0
2,4, 1, 4, 0,17, 0.00,60.00,Wednesday
141,118793226.98556243
190,0.0
2,4, 1, 4, 0,18, 0.00,60.00,Wednesday
141,123167896.89853105
190,0.0
2,4, 1, 4, 0,19, 0.00,60.00,Wednesday
141,127673914.8412495
190,0.0
2,4, 1, 4, 0,20, 0.00,60.00,Wednesday
141,130083867.6855184
190,0.0
2,4, 1, 4, 0,21, 0.00,60.00,Wednesday
141,131348724.73167118
190,0.0
2,4, 1, 4, 0,22, 0.00,60.00,Wednesday
141,134001259.42768964
190,0.0
2,4, 1, 4, 0,23, 0.00,60.00,Wednesday
141,133564355.35965328
190,0.0
2,4, 1, 4, 0,24, 0.00,60.00,Wednesday
141,132596977.84335151
190,0.0
2,5, 1, 5, 0, 1, 0.00,60.00,Thursday
141,133996658.09230095
190,0.0
2,5, 1, 5, 0, 2, 0.00,60.00,Thursday
141,133628759.94791871
190,0.0
2,5, 1, 5, 0, 3, 0.00,60.00,Thursday
141,133224723.26645705
190,0.0
2,5, 1, 5, 0, 4, 0.00,60.00,Thursday
141,134043898.92444554
190,0.0
2,5, 1, 5, 0, 5, 0.00,60.00,Thursday
141,133221290.07116309
190,0.0
2,5, 1, 5, 0, 6, 0.00,60.00,Thursday
141,132989110.43811958
190,0.0
2,5, 1, 5, 0, 7, 0.00,60.00,Thursday
141,134007851.51248516
190,0.0
2,5, 1, 5, 0, 8, 0.00,60.00,Thursday
141,134801543.48691136
190,0.0
2,5, 1, 5, 0, 9, 0.00,60.00,Thursday
141,135017077.47558072
190,0.0
2,5, 1, 5, 0,10, 0.00,60.00,Thursday
141,136294118.5312063
190,0.0
2,5, 1, 5, 0,11, 0.00,60.00,Thursday
141,135750497.04118693
190,0.0
2,5, 1, 5, 0,12, 0.00,60.00,Thursday
141,132389996.10970025
190,0.0
2,5, 1, 5, 0,13, 0.00,60.00,Thursday
141,130883499.62318206
190,0.0
2,5, 1, 5, 0,14, 0.00,60.00,Thursday
141,127988112.63580722
190,0.0
2,5, 1, 5, 0,15, 0.00,60.00,Thursday
141,125305573.40031132
190,0.0
2,5, 1, 5, 0,16, 0.00,60.00,Thursday
141,125671725.77096514
190,0.0
2,5, 1, 5, 0,17, 0.00,60.00,Thursday
141,124163448.34965509
190,0.0
2,5, 1, 5, 0,18, 0.00,60.00,Thursday
141,122114411.52843751
190,0.0
2,5, 1, 5, 0,19, 0.00,60.00,Thursday
141,121713676.4423917
190,0.0
2,5, 1, 5, 0,20, 0.00,60.00,Thursday
141,120825630.53950627
190,0.0
2,5, 1, 5, 0,21, 0.00,60.00,Thursday
141,119861589.07177061
190,0.0
2,5, 1, 5, 0,22, 0.00,60.00,Thursday
141,119417242.99946912
190,0.0
2,5, 1, 5, 0,23, 0.00,60.00,Thursday
141,119479606.57685888
190,0.0
2,5, 1, 5, 0,24, 0.00,60.00,Thursday
141,119658461.41914107
190,0.0
2,6, 1, 6, 0, 1, 0.00,60.00,Friday
141,119714335.44121231
190,0.0
2,6, 1, 6, 0, 2, 0.00,60.00,Friday
141,119788115.42052281
190,0.0
2,6, 1, 6, 0, 3, 0.00,60.00,Friday
141,121636111.66410401
190,0.0
2,6, 1, 6, 0, 4, 0.00,60.00,Friday
141,123449433.6341023
190,0.0
2,6, 1, 6, 0, 5, 0.00,60.00,Friday
141,124347218.34969825
190,0.0
2,6, 1, 6, 0, 6, 0.00,60.00,Friday
141,125532426.79827082
190,0.0
2,6, 1, 6, 0, 7, 0.00,60.00,Friday
141,127402711.1336183
190,0.0
2,6, 1, 6, 0, 8, 0.00,60.00,Friday
141,129258522.02186054
190,0.0
2,6, 1, 6, 0, 9, 0.00,60.00,Friday
141,131576314.73040031
190,0.0
2,6, 1, 6, 0,10, 0.00,60.00,Friday
141,133131914.40297246
190,0.0
2,6, 1, 6, 0,11, 0.00,60.00,Friday
141,132098790.03112105
190,0.0
2,6, 1, 6, 0,12, 0.00,60.00,Friday
141,130320075.88686153
190,0.0
2,6, 1, 6, 0,13, 0.00,60.00,Friday
141,129641235.77497938
190,0.0
2,6, 1, 6, 0,14, 0.00,60.00,Friday
141,129382094.35583928
190,0.0
2,6, 1, 6, 0,15, 0.00,60.00,Friday
141,128666461.02980964
190,0.0
2,6, 1, 6, 0,16, 0.00,60.00,Friday
141,126901602.2774111
190,0.0
2,6, 1, 6, 0,17, 0.00,60.00,Friday
141,124975337.7734423
190,0.0
2,6, 1, 6, 0,18, 0.00,60.00,Friday
141,123859446.3361219
190,0.0
2,6, 1, 6, 0,19, 0.00,60.00,Friday
141,122780521.74902931
190,0.0
2,6, 1, 6, 0,20, 0.00,60.00,Friday
141,120767325.15144508
190,0.0
2,6, 1, 6, 0,21, 0.00,60.00,Friday
141,116056856.861336
190,0.0
2,6, 1, 6, 0,22, 0.00,60.00,Friday
141,110515792.75297911
190,0.0
2,6, 1, 6, 0,23, 0.00,60.00,Friday
141,108208652.99358577
190,0.0
2,6, 1, 6, 0,24, 0.00,60.00,Friday
141,108991442.23323916
190,0.0
2,7, 1, 7, 0, 1, 0.00,60.00,Saturday
141,113709994.61534898
190,0.0
2,7, 1, 7, 0, 2, 0.00,60.00,Saturday
141,118298394.42697912
190,0.0
2,7, 1, 7, 0, 3, 0.00,60.00,Saturday
141,117526321.40120016
190,0.0
2,7, 1, 7, 0, 4, 0.00,60.00,Saturday
141,117800864.860305
190,0.0
2,7, 1, 7, 0, 5, 0.00,60.00,Saturday
141,120920890.77396898
190,0.0
2,7, 1, 7, 0, 6, 0.00,60.00,Saturday
141,123391267.10811666
190,0.0
2,7, 1, 7, 0, 7, 0.00,60.00,Saturday
141,124877504.31051603
190,0.0
2,7, 1, 7, 0, 8, 0.00,60.00,Saturday
141,125688828.53067917
190,0.0
2,7, 1, 7, 0, 9, 0.00,60.00,Saturday
141,124085659.77724378
190,0.0
2,7, 1, 7, 0,10, 0.00,60.00,Saturday
141,122755709.91016966
190,0.0
2,7, 1, 7, 0,11, 0.00,60.00,Saturday
141,118401990.2082421
190,0.0
2,7, 1, 7, 0,12, 0.00,60.00,Saturday
141,113946126.99886793
190,0.0
2,7, 1, 7, 0,13, 0.00,60.00,Saturday
141,110485527.82561259
190,0.0
2,7, 1, 7, 0,14, 0.00,60.00,Saturday
141,108239787.75415933
190,0.0
2,7, 1, 7, 0,15, 0.00,60.00,Saturday
141,107964510.7082482
190,0.0
2,7, 1, 7, 0,16, 0.00,60.00,Saturday
141,108130893.15296364
190,0.0
2,7, 1, 7, 0,17, 0.00,60.00,Saturday
141,107888380.92138585
190,0.0
2,7, 1, 7, 0,18, 0.00,60.00,Saturday
141,108731591.58767991
190,0.0
2,7, 1, 7, 0,19, 0.00,60.00,Saturday
141,109719568.37345147
190,0.0
2,7, 1, 7, 0,20, 0.00,60.00,Saturday
141,110992602.24199061
190,0.0
2,7, 1, 7, 0,21, 0.00,60.00,Saturday
141,112016137.77080622
190,0.0
2,7, 1, 7, 0,22, 0.00,60.00,Saturday
141,111910502.7283039
190,0.0
2,7, 1, 7, 0,23, 0.00,60.00,Saturday
141,112242415.09209538
190,0.0
2,7, 1, 7, 0,24, 0.00,60.00,Saturday
141,112392880.0139105
190,0.0
2,8, 1, 8, 0, 1, 0.00,60.00,Sunday
141,111532158.59415674
190,0.0
2,8, 1, 8, 0, 2, 0.00,60.00,Sunday
141,110638429.57016788
190,0.0
2,8, 1, 8, 0, 3, 0.00,60.00,Sunday
141,110004404.03553867
190,0.0
2,8, 1, 8, 0, 4, 0.00,60.00,Sunday
141,108732642.34148937
190,0.0
2,8, 1, 8, 0, 5, 0.00,60.00,Sunday
141,106892353.01863712
190,0.0
2,8, 1, 8, 0, 6, 0.00,60.00,Sunday
141,105507019.58030644
190,0.0
2,8, 1, 8, 0, 7, 0.00,60.00,Sunday
141,104371650.42120066
190,0.0
2,8, 1, 8, 0, 8, 0.00,60.00,Sunday
141,103247571.3307272
190,0.0
2,8, 1, 8, 0, 9, 0.00,60.00,Sunday
141,101887205.21022353
190,0.0
2,8, 1, 8, 0,10, 0.00,60.00,Sunday
141,101273497.35414173
190,0.0
2,8, 1, 8, 0,11, 0.00,60.00,Sunday
141,100636803.415408
190,0.0
2,8, 1, 8, 0,12, 0.00,60.00,Sunday
141,100494294.91439286
190,0.0
2,8, 1, 8, 0,13, 0.00,60.00,Sunday
141,99769871.32421973
190,0.0
2,8, 1, 8, 0,14, 0.00,60.00,Sunday
141,99574263.40485963
190,0.0
2,8, 1, 8, 0,15, 0.00,60.00,Sunday
141,101968125.8316661
190,0.0
2,8, 1, 8, 0,16, 0.00,60.00,Sunday
141,103628998.95513079
190,0.0
2,8, 1, 8, 0,17, 0.00,60.00,Sunday
141,103424566.18457662
190,0.0
2,8, 1, 8, 0,18, 0.00,60.00,Sunday
141,104177520.56158271
190,0.0
2,8, 1, 8, 0,19, 0.00,60.00,Sunday
141,103673145.53319544
190,0.0
2,8, 1, 8, 0,20, 0.00,60.00,Sunday
141,102031824.39712283
190,0.0
2,8, 1, 8, 0,21, 0.00,60.00,Sunday
141,100933564.28916968
190,0.0
2,8, 1, 8, 0,22, 0.00,60.00,Sunday
141,101483386.25995663
190,0.0
2,8, 1, 8, 0,23, 0.00,60.00,Sunday
141,102027588.10194889
190,0.0
2,8, 1, 8, 0,24, 0.00,60.00,Sunday
141,103261653.25144295
190,0.0
2,9, 1, 9, 0, 1, 0.00,60.00,Monday
141,103659727.2937904
190,0.0
2,9, 1, 9, 0, 2, 0.00,60.00,Monday
141,103988524.81393802
190,0.0
2,9, 1, 9, 0, 3, 0.00,60.00,Monday
141,103966054.48747107
190,0.0
2,9, 1, 9, 0, 4, 0.00,60.00,Monday
141,103558128.41714503
190,0.0
2,9, 1, 9, 0, 5, 0.00,60.00,Monday
141,102323468.49464679
190,0.0
2,9, 1, 9, 0, 6, 0.00,60.00,Monday
141,101004341.69436201
190,0.0
2,9, 1, 9, 0, 7, 0.00,60.00,Monday
141,100005530.80635689
190,0.0
2,9, 1, 9, 0, 8, 0.00,60.00,Monday
141,99391333.11306451
190,0.0
2,9, 1, 9, 0, 9, 0.00,60.00,Monday
141,97713591.06436954
190,0.0
2,9, 1, 9, 0,10, 0.00,60.00,Monday
141,93768834.91763932
190,0.0
2,9, 1, 9, 0,11, 0.00,60.00,Monday
141,90363733.78370297
190,0.0
2,9, 1, 9, 0,12, 0.00,60.00,Monday
141,88353137.43518746
190,0.0
2,9, 1, 9, 0,13, 0.00,60.00,Monday
141,86556219.3449473
190,0.0
2,9, 1, 9, 0,14, 0.00,60.00,Monday
141,85033276.9165584
190,0.0
2,9, 1, 9, 0,15, 0.00,60.00,Monday
141,84112602.4643014
190,0.0
2,9, 1, 9, 0,16, 0.00,60.00,Monday
141,84278083.66919236
190,0.0
2,9, 1, 9, 0,17, 0.00,60.00,Monday
141,86268115.72616273
190,0.0
2,9, 1, 9, 0,18, 0.00,60.00,Monday
141,88190374.01573996
190,0.0
2,9, 1, 9, 0,19, 0.00,60.00,Monday
141,87608550.1904165
190,0.0
2,9, 1, 9, 0,20, 0.00,60.00,Monday
141,83939096.4241268
190,0.0
2,9, 1, 9, 0,21, 0.00,60.00,Monday
141,80261187.53488815
190,0.0
2,9, 1, 9, 0,22, 0.00,60.00,Monday
141,77859934.84599906
190,0.0
2,9, 1, 9, 0,23, 0.00,60.00,Monday
141,77053923.33895248
190,0.0
2,9, 1, 9, 0,24, 0.00,60.00,Monday
141,76722570.45235874
190,0.0
2,10, 1,10, 0, 1, 0.00,60.00,Tuesday
141,76998743.98995946
190,0.0
2,10, 1,10, 0, 2, 0.00,60.00,Tuesday
141,76918546.6129986
190,0.0
2,10, 1,10, 0, 3, 0.00,60.00,Tuesday
141,76306759.64566672
190,0.0
2,10, 1,10, 0, 4, 0.00,60.00,Tuesday
141,76648386.6509654
190,0.0
2,10, 1,10, 0, 5, 0.00,60.00,Tuesday
141,76370064.49109435
190,0.0
2,10, 1,10, 0, 6, 0.00,60.00,Tuesday
141,75893885.75817285
190,0.0
2,10, 1,10, 0, 7, 0.00,60.00,Tuesday
141,75519703.06445406
190,0.0
2,10, 1,10, 0, 8, 0.00,60.00,Tuesday
141,74720203.22439632
190,0.0
2,10, 1,10, 0, 9, 0.00,60.00,Tuesday
141,73830470.02486658
190,0.0
2,10, 1,10, 0,10, 0.00,60.00,Tuesday
141,72808256.11967543
190,0.0
2,10, 1,10, 0,11, 0.00,60.00,Tuesday
141,71502275.55782735
190,0.0
2,10, 1,10, 0,12, 0.00,60.00,Tuesday
141,70069997.29429916
190,0.0
2,10, 1,10, 0,13, 0.00,60.00,Tuesday
141,69646873.21847054
190,0.0
2,10, 1,10, 0,14, 0.00,60.00,Tuesday
141,73822833.34099519
190,0.0
2,10, 1,10, 0,15, 0.00,60.00,Tuesday
141,77216745.21797788
190,0.0
2,10, 1,10, 0,16, 0.00,60.00,Tuesday
141,79368794.67778255
190,0.0
2,10, 1,10, 0,17, 0.00,60.00,Tuesday
141,81771165.06428792
190,0.0
2,10, 1,10, 0,18, 0.00,60.00,Tuesday
141,85043441.37673338
190,0.0
2,10, 1,10, 0,19, 0.00,60.00,Tuesday
141,87207694.65787417
190,0.0
2,10, 1,10, 0,20, 0.00,60.00,Tuesday
141,89302535.96985689
190,0.0
2,10, 1,10, 0,21, 0.00,60.00,Tuesday
141,92382189.66439031
190,0.0
2,10, 1,10, 0,22, 0.00,60.00,Tuesday
141,94899606.70026667
190,0.0
2,10, 1,10, 0,23, 0.00,60.00,Tuesday
141,95859759.50283082
190,0.0
2,10, 1,10, 0,24, 0.00,60.00,Tuesday
141,98766609.70965107
190,0.0
2,11, 1,11, 0, 1, 0.00,60.00,Wednesday
141,100694832.72850102
190,0.0
2,11, 1,11, 0, 2, 0.00,60.00,Wednesday
141,102596131.04209736
190,0.0
2,11, 1,11, 0, 3, 0.00,60.00,Wednesday
141,104880447.47317809
190,0.0
2,11, 1,11, 0, 4, 0.00,60.00,Wednesday
141,105385367.11165065
190,0.0
2,11, 1,11, 0, 5, 0.00,60.00,Wednesday
141,105902958.73720035
190,0.0
2,11, 1,11, 0, 6, 0.00,60.00,Wednesday
141,106591595.13150758
190,0.0
2,11, 1,11, 0, 7, 0.00,60.00,Wednesday
141,107575795.77933443
190,0.0
2,11, 1,11, 0, 8, 0.00,60.00,Wednesday
141,108438804.83015937
190,0.0
2,11, 1,11, 0, 9, 0.00,60.00,Wednesday
141,108679816.87205857
190,0.0
2,11, 1,11, 0,10, 0.00,60.00,Wednesday
141,108490323.72099608
190,0.0
2,11, 1,11, 0,11, 0.00,60.00,Wednesday
141,107856814.2843662
190,0.0
2,11, 1,11, 0,12, 0.00,60.00,Wednesday
141,106519377.90544955
190,0.0
2,11, 1,11, 0,13, 0.00,60.00,Wednesday
141,105263167.93132888
190,0.0
2,11, 1,11, 0,14, 0.00,60.00,Wednesday
141,104325568.57192409
190,0.0
2,11, 1,11, 0,15, 0.00,60.00,Wednesday
141,103414830.59878725
190,0.0
2,11, 1,11, 0,16, 0.00,60.00,Wednesday
141,102421746.73282325
190,0.0
2,11, 1,11, 0,17, 0.00,60.00,Wednesday
141,100501567.97253975
190,0.0
2,11, 1,11, 0,18, 0.00,60.00,Wednesday
141,98689262.44387169
190,0.0
2,11, 1,11, 0,19, 0.00,60.00,Wednesday
141,97308947.41385046
190,0.0
2,11, 1,11, 0,20, 0.00,60.00,Wednesday
141,96631873.87855923
190,0.0
2,11, 1,11, 0,21, 0.00,60.00,Wednesday
141,96196059.66500367
190,0.0
2,11, 1,11, 0,22, 0.00,60.00,Wednesday
141,94349452.37736686
190,0.0
2,11, 1,11, 0,23, 0.00,60.00,Wednesday
141,92958628.32632373
190,0.0
2,11, 1,11, 0,24, 0.00,60.00,Wednesday
141,92930768.36935903
190,0.0
2,12, 1,12, 0, 1, 0.00,60.00,Thursday
141,93404254.03514512
190,0.0
2,12, 1,12, 0, 2, 0.00,60.00,Thursday
141,93367174.51215819
190,0.0
2,12, 1,12, 0, 3, 0.00,60.00,Thursday
141,92880695.37638445
190,0.0
2,12, 1,12, 0, 4, 0.00,60.00,Thursday
141,92833934.23871343
190,0.0
2,12, 1,12, 0, 5, 0.00,60.00,Thursday
141,93304541.84309484
190,0.0
2,12, 1,12, 0, 6, 0.00,60.00,Thursday
141,94538346.87074909
190,0.0
2,12, 1,12, 0, 7, 0.00,60.00,Thursday
141,95178259.09762248
190,0.0
2,12, 1,12, 0, 8, 0.00,60.00,Thursday
141,95294258.48856649
190,0.0
2,12, 1,12, 0, 9, 0.00,60.00,Thursday
141,94332794.97448139
190,0.0
2,12, 1,12, 0,10, 0.00,60.00,Thursday
141,92305474.01081915
190,0.0
2,12, 1,12, 0,11, 0.00,60.00,Thursday
141,90759290.49995154
190,0.0
2,12, 1,12, 0,12, 0.00,60.00,Thursday
141,89876905.88868508
190,0.0
2,12, 1,12, 0,13, 0.00,60.00,Thursday
141,88774874.98127364
190,0.0
2,12, 1,12, 0,14, 0.00,60.00,Thursday
141,87639562.6243736
190,0.0
2,12, 1,12, 0,15, 0.00,60.00,Thursday
141,87715733.7267323
190,0.0
2,12, 1,12, 0,16, 0.00,60.00,Thursday
141,88321698.41333914
190,0.0
2,12, 1,12, 0,17, 0.00,60.00,Thursday
141,90811640.65247545
190,0.0
2,12, 1,12, 0,18, 0.00,60.00,Thursday
141,92267261.42011708
190,0.0
2,12, 1,12, 0,19, 0.00,60.00,Thursday
141,91725597.27440271
190,0.0
2,12, 1,12, 0,20, 0.00,60.00,Thursday
141,90412275.3498025
190,0.0
2,12, 1,12, 0,21, 0.00,60.00,Thursday
141,89866603.31614558
190,0.0
2,12, 1,12, 0,22, 0.00,60.00,Thursday
141,88899638.93646109
190,0.0
2,12, 1,12, 0,23, 0.00,60.00,Thursday
141,88406214.46144715
190,0.0
2,12, 1,12, 0,24, 0.00,60.00,Thursday
141,88230595.0538562
190,0.0
2,13, 1,13, 0, 1, 0.00,60.00,Friday
141,87330088.43626446
190,0.0
2,13, 1,13, 0, 2, 0.00,60.00,Friday
141,86429649.13020301
190,0.0
2,13, 1,13, 0, 3, 0.00,60.00,Friday
141,85232051.66508196
190,0.0
2,13, 1,13, 0, 4, 0.00,60.00,Friday
141,84333324.6407374
190,0.0
2,13, 1,13, 0, 5, 0.00,60.00,Friday
141,83866475.72814406
190,0.0
2,13, 1,13, 0, 6, 0.00,60.00,Friday
141,83605057.53215721
190,0.0
2,13, 1,13, 0, 7, 0.00,60.00,Friday
141,83724898.3975043
190,0.0
2,13, 1,13, 0, 8, 0.00,60.00,Friday
141,83422689.25855301
190,0.0
2,13, 1,13, 0, 9, 0.00,60.00,Friday
141,82513878.87386787
190,0.0
2,13, 1,13, 0,10, 0.00,60.00,Friday
141,83742693.92773841
190,0.0
2,13, 1,13, 0,11, 0.00,60.00,Friday
141,85216062.50673549
190,0.0
2,13, 1,13, 0,12, 0.00,60.00,Friday
141,85194913.16027215
190,0.0
2,13, 1,13, 0,13, 0.00,60.00,Friday
141,85355566.51714101
190,0.0
2,13, 1,13, 0,14, 0.00,60.00,Friday
141,86438346.42054667
190,0.0
2,13, 1,13, 0,15, 0.00,60.00,Friday
141,87126284.46416739
190,0.0
2,13, 1,13, 0,16, 0.00,60.00,Friday
141,87101052.9483005
190,0.0
2,13, 1,13, 0,17, 0.00,60.00,Friday
141,86930526.3355849
190,0.0
2,13, 1,13, 0,18, 0.00,60.00,Friday
141,86873376.84055616
190,0.0
2,13, 1,13, 0,19, 0.00,60.00,Friday
141,87902318.17712168
190,0.0
2,13, 1,13, 0,20, 0.00,60.00,Friday
141,89680768.69347414
190,0.0
2,13, 1,13, 0,21, 0.00,60.00,Friday
141,91353712.15265949
190,0.0
2,13, 1,13, 0,22, 0.00,60.00,Friday
141,92646911.58653563
190,0.0
2,13, 1,13, 0,23, 0.00,60.00,Friday
141,92813791.45609039
190,0.0
2,13, 1,13, 0,24, 0.00,60.00,Friday
141,97587617.64270693
190,0.0
2,14, 1,14, 0, 1, 0.00,60.00,Saturday
141,101152374.2506834
190,0.0
2,14, 1,14, 0, 2, 0.00,60.00,Saturday
141,100703046.01138508
190,0.0
2,14, 1,14, 0, 3, 0.00,60.00,Saturday
141,101587280.74730405
190,0.0
2,14, 1,14, 0, 4, 0.00,60.00,Saturday
141,101717639.71307193
190,0.0
2,14, 1,14, 0, 5, 0.00,60.00,Saturday
141,102102210.54386672
190,0.0
2,14, 1,14, 0, 6, 0.00,60.00,Saturday
141,105592133.41180095
190,0.0
2,14, 1,14, 0, 7, 0.00,60.00,Saturday
141,108438875.25931752
190,0.0
2,14, 1,14, 0, 8, 0.00,60.00,Saturday
141,108448750.10840446
190,0.0
2,14, 1,14, 0, 9, 0.00,60.00,Saturday
141,110503467.10796134
190,0.0
2,14, 1,14, 0,10, 0.00,60.00,Saturday
141,113043046.00334698
190,0.0
2,14, 1,14, 0,11, 0.00,60.00,Saturday
141,113273082.09933995
190,0.0
2,14, 1,14, 0,12, 0.00,60.00,Saturday
141,113041029.2010198
190,0.0
2,14, 1,14, 0,13, 0.00,60.00,Saturday
141,111882885.38287212
190,0.0
2,14, 1,14, 0,14, 0.00,60.00,Saturday
141,108718564.38440487
190,0.0
2,14, 1,14, 0,15, 0.00,60.00,Saturday
141,108344553.5845502
190,0.0
2,14, 1,14, 0,16, 0.00,60.00,Saturday
141,108929897.688194
190,0.0
2,14, 1,14, 0,17, 0.00,60.00,Saturday
141,109988982.5235314
190,0.0
2,14, 1,14, 0,18, 0.00,60.00,Saturday
141,112408709.59473716
190,0.0
2,14, 1,14, 0,19, 0.00,60.00,Saturday
141,112606937.17889787
190,0.0
2,14, 1,14, 0,20, 0.00,60.00,Saturday
141,113396457.03281938
190,0.0
2,14, 1,14, 0,21, 0.00,60.00,Saturday
141,113562170.32493532
190,0.0
2,14, 1,14, 0,22, 0.00,60.00,Saturday
141,113437310.60681224
190,0.0
2,14, 1,14, 0,23, 0.00,60.00,Saturday
141,113604337.98287347
190,0.0
2,14, 1,14, 0,24, 0.00,60.00,Saturday
141,114118254.61868747
190,0.0
2,15, 1,15, 0, 1, 0.00,60.00,Sunday
141,113251623.66364163
190,0.0
2,15, 1,15, 0, 2, 0.00,60.00,Sunday
141,110110175.21590646
190,0.0
2,15, 1,15, 0, 3, 0.00,60.00,Sunday
141,108708330.05731042
190,0.0
2,15, 1,15, 0, 4, 0.00,60.00,Sunday
141,107624989.43998896
190,0.0
2,15, 1,15, 0, 5, 0.00,60.00,Sunday
141,105224180.53036265
190,0.0
2,15, 1,15, 0, 6, 0.00,60.00,Sunday
141,102468005.21566753
190,0.0
2,15, 1,15, 0, 7, 0.00,60.00,Sunday
141,99544978.54785797
190,0.0
2,15, 1,15, 0, 8, 0.00,60.00,Sunday
141,97285486.80499071
190,0.0
2,15, 1,15, 0, 9, 0.00,60.00,Sunday
141,95273139.22405355
190,0.0
2,15, 1,15, 0,10, 0.00,60.00,Sunday
141,94194950.10221568
190,0.0
2,15, 1,15, 0,11, 0.00,60.00,Sunday
141,94496104.3315932
190,0.0
2,15, 1,15, 0,12, 0.00,60.00,Sunday
141,96786283.73761171
190,0.0
2,15, 1,15, 0,13, 0.00,60.00,Sunday
141,98187868.37629402
190,0.0
2,15, 1,15, 0,14, 0.00,60.00,Sunday
141,98251404.21558882
190,0.0
2,15, 1,15, 0,15, 0.00,60.00,Sunday
141,97913405.7818268
190,0.0
2,15, 1,15, 0,16, 0.00,60.00,Sunday
141,96575122.1831967
190,0.0
2,15, 1,15, 0,17, 0.00,60.00,Sunday
141,95684040.33638704
190,0.0
2,15, 1,15, 0,18, 0.00,60.00,Sunday
141,95675138.2119628
190,0.0
2,15, 1,15, 0,19, 0.00,60.00,Sunday
141,96021841.10453652
190,0.0
2,15, 1,15, 0,20, 0.00,60.00,Sunday
141,96530484.18693818
190,0.0
2,15, 1,15, 0,21, 0.00,60.00,Sunday
141,97942654.92828394
190,0.0
2,15, 1,15, 0,22, 0.00,60.00,Sunday
141,98637046.04981573
190,0.0
2,15, 1,15, 0,23, 0.00,60.00,Sunday
141,98872521.31476684
190,0.0
2,15, 1,15, 0,24, 0.00,60.00,Sunday
141,99549286.86323519
190,0.0
2,16, 1,16, 0, 1, 0.00,60.00,Monday
141,101365426.23161046
190,0.0
2,16, 1,16, 0, 2, 0.00,60.00,Monday
141,103168534.47347905
190,0.0
2,16, 1,16, 0, 3, 0.00,60.00,Monday
141,104419588.63188359
190,0.0
2,16, 1,16, 0, 4, 0.00,60.00,Monday
141,105417983.28170916
190,0.0
2,16, 1,16, 0, 5, 0.00,60.00,Monday
141,106589685.36733854
190,0.0
2,16, 1,16, 0, 6, 0.00,60.00,Monday
141,107562118.94772469
190,0.0
2,16, 1,16, 0, 7, 0.00,60.00,Monday
141,109223320.16779222
190,0.0
2,16, 1,16, 0, 8, 0.00,60.00,Monday
141,110769023.60829371
190,0.0
2,16, 1,16, 0, 9, 0.00,60.00,Monday
141,111527644.36561543
190,0.0
2,16, 1,16, 0,10, 0.00,60.00,Monday
141,111728091.43088157
190,0.0
2,16, 1,16, 0,11, 0.00,60.00,Monday
141,108893010.40837376
190,0.0
2,16, 1,16, 0,12, 0.00,60.00,Monday
141,106347983.27717352
190,0.0
2,16, 1,16, 0,13, 0.00,60.00,Monday
141,104185772.59995696
190,0.0
2,16, 1,16, 0,14, 0.00,60.00,Monday
141,102512700.59490718
190,0.0
2,16, 1,16, 0,15, 0.00,60.00,Monday
141,102099592.83470833
190,0.0
2,16, 1,16, 0,16, 0.00,60.00,Monday
141,102601473.94156368
190,0.0
2,16, 1,16, 0,17, 0.00,60.00,Monday
141,104120534.0557068
190,0.0
2,16, 1,16, 0,18, 0.00,60.00,Monday
141,107063840.37099479
190,0.0
2,16, 1,16, 0,19, 0.00,60.00,Monday
141,110104209.20966698
190,0.0
2,16, 1,16, 0,20, 0.00,60.00,Monday
141,111591619.8489198
190,0.0
2,16, 1,16, 0,21, 0.00,60.00,Monday
141,112738900.64556457
190,0.0
2,16, 1,16, 0,22, 0.00,60.00,Monday
141,113784256.3755926
190,0.0
2,16, 1,16, 0,23, 0.00,60.00,Monday
141,115400686.96087562
190,0.0
2,16, 1,16, 0,24, 0.00,60.00,Monday
141,115733650.83081226
190,0.0
2,17, 1,17, 0, 1, 0.00,60.00,Tuesday
141,116296269.25677186
190,0.0
2,17, 1,17, 0, 2, 0.00,60.00,Tuesday
141,118589075.13932988
190,0.0
2,17, 1,17, 0, 3, 0.00,60.00,Tuesday
141,120755320.35227472
190,0.0
2,17, 1,17, 0, 4, 0.00,60.00,Tuesday
141,122767270.71883504
190,0.0
2,17, 1,17, 0, 5, 0.00,60.00,Tuesday
141,124953362.8698042
190,0.0
2,17, 1,17, 0, 6, 0.00,60.00,Tuesday
141,127133078.16956376
190,0.0
2,17, 1,17, 0, 7, 0.00,60.00,Tuesday
141,128654015.32702531
190,0.0
2,17, 1,17, 0, 8, 0.00,60.00,Tuesday
141,129726826.10794982
190,0.0
2,17, 1,17, 0, 9, 0.00,60.00,Tuesday
141,130397310.11018488
190,0.0
2,17, 1,17, 0,10, 0.00,60.00,Tuesday
141,127498792.08983919
190,0.0
2,17, 1,17, 0,11, 0.00,60.00,Tuesday
141,122937268.65368745
190,0.0
2,17, 1,17, 0,12, 0.00,60.00,Tuesday
141,118944664.17640014
190,0.0
2,17, 1,17, 0,13, 0.00,60.00,Tuesday
141,116428034.48044117
190,0.0
2,17, 1,17, 0,14, 0.00,60.00,Tuesday
141,115368296.43810138
190,0.0
2,17, 1,17, 0,15, 0.00,60.00,Tuesday
141,115111823.57195021
190,0.0
2,17, 1,17, 0,16, 0.00,60.00,Tuesday
141,116060459.28265204
190,0.0
2,17, 1,17, 0,17, 0.00,60.00,Tuesday
141,116317296.43497166
190,0.0
2,17, 1,17, 0,18, 0.00,60.00,Tuesday
141,114903735.71385606
190,0.0
2,17, 1,17, 0,19, 0.00,60.00,Tuesday
141,113426095.91963097
190,0.0
2,17, 1,17, 0,20, 0.00,60.00,Tuesday
141,112995999.98433305
190,0.0
2,17, 1,17, 0,21, 0.00,60.00,Tuesday
141,113280655.67269614
190,0.0
2,17, 1,17, 0,22, 0.00,60.00,Tuesday
141,113232480.56419304
190,0.0
2,17, 1,17, 0,23, 0.00,60.00,Tuesday
141,113386314.47383313
190,0.0
2,17, 1,17, 0,24, 0.00,60.00,Tuesday
141,114664803.96789578
190,0.0
2,18, 1,18, 0, 1, 0.00,60.00,Wednesday
141,115710311.64257908
190,0.0
2,18, 1,18, 0, 2, 0.00,60.00,Wednesday
141,116781822.84534572
190,0.0
2,18, 1,18, 0, 3, 0.00,60.00,Wednesday
141,117700389.09553415
190,0.0
2,18, 1,18, 0, 4, 0.00,60.00,Wednesday
141,118426677.6440613
190,0.0
2,18, 1,18, 0, 5, 0.00,60.00,Wednesday
141,119249109.07604797
190,0.0
2,18, 1,18, 0, 6, 0.00,60.00,Wednesday
141,120177081.80401477
190,0.0
2,18, 1,18, 0, 7, 0.00,60.00,Wednesday
141,122438193.57529664
190,0.0
2,18, 1,18, 0, 8, 0.00,60.00,Wednesday
141,123383406.18988308
190,0.0
2,18, 1,18, 0, 9, 0.00,60.00,Wednesday
141,124006801.45118001
190,0.0
2,18, 1,18, 0,10, 0.00,60.00,Wednesday
141,124189107.50648905
190,0.0
2,18, 1,18, 0,11, 0.00,60.00,Wednesday
141,122750936.722178
190,0.0
2,18, 1,18, 0,12, 0.00,60.00,Wednesday
141,121642938.59490915
190,0.0
2,18, 1,18, 0,13, 0.00,60.00,Wednesday
141,122318699.51474413
190,0.0
2,18, 1,18, 0,14, 0.00,60.00,Wednesday
141,123561499.75355938
190,0.0
2,18, 1,18, 0,15, 0.00,60.00,Wednesday
141,124102626.45137252
190,0.0
2,18, 1,18, 0,16, 0.00,60.00,Wednesday
141,125351296.48119524
190,0.0
2,18, 1,18, 0,17, 0.00,60.00,Wednesday
141,125854307.50988701
190,0.0
2,18, 1,18, 0,18, 0.00,60.00,Wednesday
141,125105943.85651915
190,0.0
2,18, 1,18, 0,19, 0.00,60.00,Wednesday
141,124744116.567897
190,0.0
2,18, 1,18, 0,20, 0.00,60.00,Wednesday
141,124998096.9984512
190,0.0
2,18, 1,18, 0,21, 0.00,60.00,Wednesday
141,125220135.47340146
190,0.0
2,18, 1,18, 0,22, 0.00,60.00,Wednesday
141,125734888.36143097
190,0.0
2,18, 1,18, 0,23, 0.00,60.00,Wednesday
141,126104603.19646151
190,0.0
2,18, 1,18, 0,24, 0.00,60.00,Wednesday
141,126572558.67368348
190,0.0
2,19, 1,19, 0, 1, 0.00,60.00,Thursday