Program Version,EnergyPlus, Version 24.2.0-94a887817b, YMD=2025.04.24 13:21
1,5,Environment Title[],Latitude[deg],Longitude[deg],Time Zone[],Elevation[m]
2,8,Day of Simulation[],Month[],Day of Month[],DST Indicator[1=yes 0=no],Hour[],StartMinute[],EndMinute[],DayType
3,5,Cumulative Day of Simulation[],Month[],Day of Month[],DST Indicator[1=yes 0=no],DayType  ! When Daily Report Variables Requested
4,2,Cumulative Days of Simulation[],Month[]  ! When Monthly Report Variables Requested
5,1,Cumulative Days of Simulation[] ! When Run Period Report Variables Requested
6,1,Calendar Year of Simulation[] ! When Annual Report Variables Requested
141,1,ZONE_0599100000359989 IDEAL LOADS AIR SYSTEM,Zone Ideal Loads Supply Air Total Heating Energy [J] !Hourly
190,1,ZONE_0599100000359989 IDEAL LOADS AIR SYSTEM,Zone Ideal Loads Supply Air Total Cooling Energy [J] !Hourly
End of Data Dictionary
1,RUN PERIOD 1,  51.96,   4.45,   1.00,  -4.50
2,1, 1, 1, 0, 1, 0.00,60.00,Sunday
141,31032826.688887034
190,0.0
2,1, 1, 1, 0, 2, 0.00,60.00,Sunday
141,32151544.590886097
190,0.0
2,1, 1, 1, 0, 3, 0.00,60.00,Sunday
141,32137111.509182397
190,0.0
2,1, 1, 1, 0, 4, 0.00,60.00,Sunday
141,32960930.3480164
190,0.0
2,1, 1, 1, 0, 5, 0.00,60.00,Sunday
141,33520409.898389824
190,0.0
2,1, 1, 1, 0, 6, 0.00,60.00,Sunday
141,33577976.98577294
190,0.0
2,1, 1, 1, 0, 7, 0.00,60.00,Sunday
141,33673007.49081811
190,0.0
2,1, 1, 1, 0, 8, 0.00,60.00,Sunday
141,33591627.46338718
190,0.0
2,1, 1, 1, 0, 9, 0.00,60.00,Sunday
141,33519093.95096032
190,0.0
2,1, 1, 1, 0,10, 0.00,60.00,Sunday
141,33245610.647734214
190,0.0
2,1, 1, 1, 0,11, 0.00,60.00,Sunday
141,32550215.95769885
190,0.0
2,1, 1, 1, 0,12, 0.00,60.00,Sunday
141,31428204.20086298
190,0.0
2,1, 1, 1, 0,13, 0.00,60.00,Sunday
141,30875921.739769712
190,0.0
2,1, 1, 1, 0,14, 0.00,60.00,Sunday
141,30116354.401553296
190,0.0
2,1, 1, 1, 0,15, 0.00,60.00,Sunday
141,29589984.766767494
190,0.0
2,1, 1, 1, 0,16, 0.00,60.00,Sunday
141,30105344.700697087
190,0.0
2,1, 1, 1, 0,17, 0.00,60.00,Sunday
141,30755262.846359167
190,0.0
2,1, 1, 1, 0,18, 0.00,60.00,Sunday
141,30964419.164799187
190,0.0
2,1, 1, 1, 0,19, 0.00,60.00,Sunday
141,31148668.923720904
190,0.0
2,1, 1, 1, 0,20, 0.00,60.00,Sunday
141,31117789.11314012
190,0.0
2,1, 1, 1, 0,21, 0.00,60.00,Sunday
141,31013661.036753852
190,0.0
2,1, 1, 1, 0,22, 0.00,60.00,Sunday
141,31085734.55951913
190,0.0
2,1, 1, 1, 0,23, 0.00,60.00,Sunday
141,30306477.707408376
190,0.0
2,1, 1, 1, 0,24, 0.00,60.00,Sunday
141,29726706.137398858
190,0.0
2,2, 1, 2, 0, 1, 0.00,60.00,Monday
141,29828638.870309256
190,0.0
2,2, 1, 2, 0, 2, 0.00,60.00,Monday
141,29040514.698500734
190,0.0
2,2, 1, 2, 0, 3, 0.00,60.00,Monday
141,28434766.694709975
190,0.0
2,2, 1, 2, 0, 4, 0.00,60.00,Monday
141,27821522.19525919
190,0.0
2,2, 1, 2, 0, 5, 0.00,60.00,Monday
141,26482925.98263744
190,0.0
2,2, 1, 2, 0, 6, 0.00,60.00,Monday
141,25847200.145871665
190,0.0
2,2, 1, 2, 0, 7, 0.00,60.00,Monday
141,24850580.259719163
190,0.0
2,2, 1, 2, 0, 8, 0.00,60.00,Monday
141,23637887.86066648
190,0.0
2,2, 1, 2, 0, 9, 0.00,60.00,Monday
141,24024997.54574739
190,0.0
2,2, 1, 2, 0,10, 0.00,60.00,Monday
141,24947650.9962518
190,0.0
2,2, 1, 2, 0,11, 0.00,60.00,Monday
141,25581404.438064232
190,0.0
2,2, 1, 2, 0,12, 0.00,60.00,Monday
141,25078592.785276964
190,0.0
2,2, 1, 2, 0,13, 0.00,60.00,Monday
141,24880630.086132914
190,0.0
2,2, 1, 2, 0,14, 0.00,60.00,Monday
141,25525630.455903523
190,0.0
2,2, 1, 2, 0,15, 0.00,60.00,Monday
141,25802413.923325736
190,0.0
2,2, 1, 2, 0,16, 0.00,60.00,Monday
141,26393067.225406878
190,0.0
2,2, 1, 2, 0,17, 0.00,60.00,Monday
141,26963596.1453403
190,0.0
2,2, 1, 2, 0,18, 0.00,60.00,Monday
141,27052011.23567064
190,0.0
2,2, 1, 2, 0,19, 0.00,60.00,Monday
141,27670140.96050139
190,0.0
2,2, 1, 2, 0,20, 0.00,60.00,Monday
141,28230585.514763247
190,0.0
2,2, 1, 2, 0,21, 0.00,60.00,Monday
141,28294481.422974944
190,0.0
2,2, 1, 2, 0,22, 0.00,60.00,Monday
141,28241911.814694695
190,0.0
2,2, 1, 2, 0,23, 0.00,60.00,Monday
141,28228422.928164385
190,0.0
2,2, 1, 2, 0,24, 0.00,60.00,Monday
141,28227461.912352998
190,0.0
2,3, 1, 3, 0, 1, 0.00,60.00,Tuesday
141,28247260.601529673
190,0.0
2,3, 1, 3, 0, 2, 0.00,60.00,Tuesday
141,28213504.146694038
190,0.0
2,3, 1, 3, 0, 3, 0.00,60.00,Tuesday
141,28162851.04830405
190,0.0
2,3, 1, 3, 0, 4, 0.00,60.00,Tuesday
141,28235415.278622657
190,0.0
2,3, 1, 3, 0, 5, 0.00,60.00,Tuesday
141,28959005.739855137
190,0.0
2,3, 1, 3, 0, 6, 0.00,60.00,Tuesday
141,29421835.30030284
190,0.0
2,3, 1, 3, 0, 7, 0.00,60.00,Tuesday
141,29636050.594021223
190,0.0
2,3, 1, 3, 0, 8, 0.00,60.00,Tuesday
141,29556062.81556988
190,0.0
2,3, 1, 3, 0, 9, 0.00,60.00,Tuesday
141,30151744.42757427
190,0.0
2,3, 1, 3, 0,10, 0.00,60.00,Tuesday
141,30434440.35084273
190,0.0
2,3, 1, 3, 0,11, 0.00,60.00,Tuesday
141,30501138.384083867
190,0.0
2,3, 1, 3, 0,12, 0.00,60.00,Tuesday
141,30679664.474096272
190,0.0
2,3, 1, 3, 0,13, 0.00,60.00,Tuesday
141,31608963.880923018
190,0.0
2,3, 1, 3, 0,14, 0.00,60.00,Tuesday
141,32117954.058127083
190,0.0
2,3, 1, 3, 0,15, 0.00,60.00,Tuesday
141,32002786.079942815
190,0.0
2,3, 1, 3, 0,16, 0.00,60.00,Tuesday
141,31899352.646786347
190,0.0
2,3, 1, 3, 0,17, 0.00,60.00,Tuesday
141,31929509.66591285
190,0.0
2,3, 1, 3, 0,18, 0.00,60.00,Tuesday
141,32005451.05833678
190,0.0
2,3, 1, 3, 0,19, 0.00,60.00,Tuesday
141,31855458.998861074
190,0.0
2,3, 1, 3, 0,20, 0.00,60.00,Tuesday
141,31121991.161291707
190,0.0
2,3, 1, 3, 0,21, 0.00,60.00,Tuesday
141,29139605.97649074
190,0.0
2,3, 1, 3, 0,22, 0.00,60.00,Tuesday
141,28076099.87009748
190,0.0
2,3, 1, 3, 0,23, 0.00,60.00,Tuesday
141,28834588.30567428
190,0.0
2,3, 1, 3, 0,24, 0.00,60.00,Tuesday
141,30128613.54384643
190,0.0
2,4, 1, 4, 0, 1, 0.00,60.00,Wednesday
141,30773607.059127335
190,0.0
2,4, 1, 4, 0, 2, 0.00,60.00,Wednesday
141,30672432.627328012
190,0.0
2,4, 1, 4, 0, 3, 0.00,60.00,Wednesday
141,30477519.57848392
190,0.0
2,4, 1, 4, 0, 4, 0.00,60.00,Wednesday
141,30695180.57377519
190,0.0
2,4, 1, 4, 0, 5, 0.00,60.00,Wednesday
141,31553172.81086926
190,0.0
2,4, 1, 4, 0, 6, 0.00,60.00,Wednesday
141,31325708.233728692
190,0.0
2,4, 1, 4, 0, 7, 0.00,60.00,Wednesday
141,31281564.714813452
190,0.0
2,4, 1, 4, 0, 8, 0.00,60.00,Wednesday
141,31623795.99658765
190,0.0
2,4, 1, 4, 0, 9, 0.00,60.00,Wednesday
141,31870480.71768901
190,0.0
2,4, 1, 4, 0,10, 0.00,60.00,Wednesday
141,32069691.68368323
190,0.0
2,4, 1, 4, 0,11, 0.00,60.00,Wednesday
141,30513395.755205862
190,0.0
2,4, 1, 4, 0,12, 0.00,60.00,Wednesday
141,27880344.509744745
190,0.0
2,4, 1, 4, 0,13, 0.00,60.00,Wednesday
141,27172862.016519435
190,0.0
2,4, 1, 4, 0,14, 0.00,60.00,Wednesday
141,27078573.494684417
190,0.0
2,4, 1, 4, 0,15, 0.00,60.00,Wednesday
141,26828430.232937127
190,0.0
2,4, 1, 4, 0,16, 0.00,60.00,Wednesday
141,27913054.451163307
190,0.0
2,4, 1, 4, 0,17, 0.00,60.00,Wednesday
141,29853597.535720102
190,0.0
2,4, 1, 4, 0,18, 0.00,60.00,Wednesday
141,31534317.578861047
190,0.0
2,4, 1, 4, 0,19, 0.00,60.00,Wednesday
141,33240276.783481617
190,0.0
2,4, 1, 4, 0,20, 0.00,60.00,Wednesday
141,34130329.33221504
190,0.0
2,4, 1, 4, 0,21, 0.00,60.00,Wednesday
141,34523767.05288969
190,0.0
2,4, 1, 4, 0,22, 0.00,60.00,Wednesday
141,35332813.25571286
190,0.0
2,4, 1, 4, 0,23, 0.00,60.00,Wednesday
141,34945953.909945145
190,0.0
2,4, 1, 4, 0,24, 0.00,60.00,Wednesday
141,34307749.402984634
190,0.0
2,5, 1, 5, 0, 1, 0.00,60.00,Thursday
141,34495046.492965564
190,0.0
2,5, 1, 5, 0, 2, 0.00,60.00,Thursday
141,34043423.58836761
190,0.0
2,5, 1, 5, 0, 3, 0.00,60.00,Thursday
141,33609532.35431707
190,0.0
2,5, 1, 5, 0, 4, 0.00,60.00,Thursday
141,33668144.97258739
190,0.0
2,5, 1, 5, 0, 5, 0.00,60.00,Thursday
141,33192028.318960488
190,0.0
2,5, 1, 5, 0, 6, 0.00,60.00,Thursday
141,32991244.921774656
190,0.0
2,5, 1, 5, 0, 7, 0.00,60.00,Thursday
141,33300486.34020608
190,0.0
2,5, 1, 5, 0, 8, 0.00,60.00,Thursday
141,33576945.022205405
190,0.0
2,5, 1, 5, 0, 9, 0.00,60.00,Thursday
141,33682393.76735492
190,0.0
2,5, 1, 5, 0,10, 0.00,60.00,Thursday
141,34201134.13021628
190,0.0
2,5, 1, 5, 0,11, 0.00,60.00,Thursday
141,34075338.17976136
190,0.0
2,5, 1, 5, 0,12, 0.00,60.00,Thursday
141,32954191.548350137
190,0.0
2,5, 1, 5, 0,13, 0.00,60.00,Thursday
141,32566622.346727774
190,0.0
2,5, 1, 5, 0,14, 0.00,60.00,Thursday
141,31764853.79142889
190,0.0
2,5, 1, 5, 0,15, 0.00,60.00,Thursday
141,31130632.409131292
190,0.0
2,5, 1, 5, 0,16, 0.00,60.00,Thursday
141,31665489.686004825
190,0.0
2,5, 1, 5, 0,17, 0.00,60.00,Thursday
141,31542642.061820213
190,0.0
2,5, 1, 5, 0,18, 0.00,60.00,Thursday
141,31201046.43119217
190,0.0
2,5, 1, 5, 0,19, 0.00,60.00,Thursday
141,31404775.46139088
190,0.0
2,5, 1, 5, 0,20, 0.00,60.00,Thursday
141,31373149.407731794
190,0.0
2,5, 1, 5, 0,21, 0.00,60.00,Thursday
141,31261360.01668406
190,0.0
2,5, 1, 5, 0,22, 0.00,60.00,Thursday
141,31292470.01049981
190,0.0
2,5, 1, 5, 0,23, 0.00,60.00,Thursday
141,31470748.554815
190,0.0
2,5, 1, 5, 0,24, 0.00,60.00,Thursday
141,31664024.54903248
190,0.0
2,6, 1, 6, 0, 1, 0.00,60.00,Friday
141,31794087.40255709
190,0.0
2,6, 1, 6, 0, 2, 0.00,60.00,Friday
141,31918322.463752303
190,0.0
2,6, 1, 6, 0, 3, 0.00,60.00,Friday
141,32676113.745928794
190,0.0
2,6, 1, 6, 0, 4, 0.00,60.00,Friday
141,33409721.848123774
190,0.0
2,6, 1, 6, 0, 5, 0.00,60.00,Friday
141,33794982.79901889
190,0.0
2,6, 1, 6, 0, 6, 0.00,60.00,Friday
141,34262129.90142104
190,0.0
2,6, 1, 6, 0, 7, 0.00,60.00,Friday
141,34949060.117028974
190,0.0
2,6, 1, 6, 0, 8, 0.00,60.00,Friday
141,35597671.96959395
190,0.0
2,6, 1, 6, 0, 9, 0.00,60.00,Friday
141,36377345.09453555
190,0.0
2,6, 1, 6, 0,10, 0.00,60.00,Friday
141,36839642.63527268
190,0.0
2,6, 1, 6, 0,11, 0.00,60.00,Friday
141,36320701.89319891
190,0.0
2,6, 1, 6, 0,12, 0.00,60.00,Friday
141,35509931.18657101
190,0.0
2,6, 1, 6, 0,13, 0.00,60.00,Friday
141,35125200.71855872
190,0.0
2,6, 1, 6, 0,14, 0.00,60.00,Friday
141,34969620.41719279
190,0.0
2,6, 1, 6, 0,15, 0.00,60.00,Friday
141,34751872.2374807
190,0.0
2,6, 1, 6, 0,16, 0.00,60.00,Friday
141,34245000.72868382
190,0.0
2,6, 1, 6, 0,17, 0.00,60.00,Friday
141,33721321.07895112
190,0.0
2,6, 1, 6, 0,18, 0.00,60.00,Friday
141,33472923.509625025
190,0.0
2,6, 1, 6, 0,19, 0.00,60.00,Friday
141,33182341.692281634
190,0.0
2,6, 1, 6, 0,20, 0.00,60.00,Friday
141,32471578.685483426
190,0.0
2,6, 1, 6, 0,21, 0.00,60.00,Friday
141,30689238.76820358
190,0.0
2,6, 1, 6, 0,22, 0.00,60.00,Friday
141,28555428.42196621
190,0.0
2,6, 1, 6, 0,23, 0.00,60.00,Friday
141,27602883.31863597
190,0.0
2,6, 1, 6, 0,24, 0.00,60.00,Friday
141,27815787.006395135
190,0.0
2,7, 1, 7, 0, 1, 0.00,60.00,Saturday
141,29510151.341799572
190,0.0
2,7, 1, 7, 0, 2, 0.00,60.00,Saturday
141,31198673.707924776
190,0.0
2,7, 1, 7, 0, 3, 0.00,60.00,Saturday
141,30959235.775039174
190,0.0
2,7, 1, 7, 0, 4, 0.00,60.00,Saturday
141,31093955.980640057
190,0.0
2,7, 1, 7, 0, 5, 0.00,60.00,Saturday
141,32245045.02742639
190,0.0
2,7, 1, 7, 0, 6, 0.00,60.00,Saturday
141,33144297.883135818
190,0.0
2,7, 1, 7, 0, 7, 0.00,60.00,Saturday
141,33668693.3143591
190,0.0
2,7, 1, 7, 0, 8, 0.00,60.00,Saturday
141,33923380.78433778
190,0.0
2,7, 1, 7, 0, 9, 0.00,60.00,Saturday
141,33270697.981351122
190,0.0
2,7, 1, 7, 0,10, 0.00,60.00,Saturday
141,32684889.111320056
190,0.0
2,7, 1, 7, 0,11, 0.00,60.00,Saturday
141,30980291.212670792
190,0.0
2,7, 1, 7, 0,12, 0.00,60.00,Saturday
141,29264407.473637618
190,0.0
2,7, 1, 7, 0,13, 0.00,60.00,Saturday
141,28022343.909459952
190,0.0
2,7, 1, 7, 0,14, 0.00,60.00,Saturday
141,27407304.870883733
190,0.0
2,7, 1, 7, 0,15, 0.00,60.00,Saturday
141,27706540.55459229
190,0.0
2,7, 1, 7, 0,16, 0.00,60.00,Saturday
141,28314076.280920934
190,0.0
2,7, 1, 7, 0,17, 0.00,60.00,Saturday
141,28828499.68459506
190,0.0
2,7, 1, 7, 0,18, 0.00,60.00,Saturday
141,29694346.021257285
190,0.0
2,7, 1, 7, 0,19, 0.00,60.00,Saturday
141,30501159.721701644
190,0.0
2,7, 1, 7, 0,20, 0.00,60.00,Saturday
141,31273217.09805604
190,0.0
2,7, 1, 7, 0,21, 0.00,60.00,Saturday
141,31821141.133196555
190,0.0
2,7, 1, 7, 0,22, 0.00,60.00,Saturday
141,31846121.91330545
190,0.0
2,7, 1, 7, 0,23, 0.00,60.00,Saturday
141,31937398.295170084
190,0.0
2,7, 1, 7, 0,24, 0.00,60.00,Saturday
141,31876242.693876415
190,0.0
2,8, 1, 8, 0, 1, 0.00,60.00,Sunday
141,31354096.236101583
190,0.0
2,8, 1, 8, 0, 2, 0.00,60.00,Sunday
141,30744476.237672552
190,0.0
2,8, 1, 8, 0, 3, 0.00,60.00,Sunday
141,30190515.75166339
190,0.0
2,8, 1, 8, 0, 4, 0.00,60.00,Sunday
141,29406842.81390297
190,0.0
2,8, 1, 8, 0, 5, 0.00,60.00,Sunday
141,28458989.852408715
190,0.0
2,8, 1, 8, 0, 6, 0.00,60.00,Sunday
141,27745688.80546418
190,0.0
2,8, 1, 8, 0, 7, 0.00,60.00,Sunday
141,27200470.265363242
190,0.0
2,8, 1, 8, 0, 8, 0.00,60.00,Sunday
141,26733627.733031906
190,0.0
2,8, 1, 8, 0, 9, 0.00,60.00,Sunday
141,26247998.698653884
190,0.0
2,8, 1, 8, 0,10, 0.00,60.00,Sunday
141,26090021.814358752
190,0.0
2,8, 1, 8, 0,11, 0.00,60.00,Sunday
141,25970049.592355352
190,0.0
2,8, 1, 8, 0,12, 0.00,60.00,Sunday
141,26066859.617228195
190,0.0
2,8, 1, 8, 0,13, 0.00,60.00,Sunday
141,25979092.547613785
190,0.0
2,8, 1, 8, 0,14, 0.00,60.00,Sunday
141,26094471.418514494
190,0.0
2,8, 1, 8, 0,15, 0.00,60.00,Sunday
141,27138110.2064475
190,0.0
2,8, 1, 8, 0,16, 0.00,60.00,Sunday
141,27890480.73315771
190,0.0
2,8, 1, 8, 0,17, 0.00,60.00,Sunday
141,27929010.88896151
190,0.0
2,8, 1, 8, 0,18, 0.00,60.00,Sunday
141,28260935.043426637
190,0.0
2,8, 1, 8, 0,19, 0.00,60.00,Sunday
141,28078953.57028137
190,0.0
2,8, 1, 8, 0,20, 0.00,60.00,Sunday
141,27446473.266821943
190,0.0
2,8, 1, 8, 0,21, 0.00,60.00,Sunday
141,26990057.824310385
190,0.0
2,8, 1, 8, 0,22, 0.00,60.00,Sunday
141,27114484.072501704
190,0.0
2,8, 1, 8, 0,23, 0.00,60.00,Sunday
141,27230775.2644217
190,0.0
2,8, 1, 8, 0,24, 0.00,60.00,Sunday
141,27599779.602189016
190,0.0
2,9, 1, 9, 0, 1, 0.00,60.00,Monday
141,27666913.4108034
190,0.0
2,9, 1, 9, 0, 2, 0.00,60.00,Monday
141,27705613.261941887
190,0.0
2,9, 1, 9, 0, 3, 0.00,60.00,Monday
141,27610650.418502145
190,0.0
2,9, 1, 9, 0, 4, 0.00,60.00,Monday
141,27377637.789515592
190,0.0
2,9, 1, 9, 0, 5, 0.00,60.00,Monday
141,26859879.28891312
190,0.0
2,9, 1, 9, 0, 6, 0.00,60.00,Monday
141,26336528.219593987
190,0.0
2,9, 1, 9, 0, 7, 0.00,60.00,Monday
141,25958816.780961536
190,0.0
2,9, 1, 9, 0, 8, 0.00,60.00,Monday
141,25754076.78565679
190,0.0
2,9, 1, 9, 0, 9, 0.00,60.00,Monday
141,25193995.971545737
190,0.0
2,9, 1, 9, 0,10, 0.00,60.00,Monday
141,23832482.99668625
190,0.0
2,9, 1, 9, 0,11, 0.00,60.00,Monday
141,22673349.31563753
190,0.0
2,9, 1, 9, 0,12, 0.00,60.00,Monday
141,22033820.601275872
190,0.0
2,9, 1, 9, 0,13, 0.00,60.00,Monday
141,21507501.780078385
190,0.0
2,9, 1, 9, 0,14, 0.00,60.00,Monday
141,21126612.80643887
190,0.0
2,9, 1, 9, 0,15, 0.00,60.00,Monday
141,21000180.471583646
190,0.0
2,9, 1, 9, 0,16, 0.00,60.00,Monday
141,21281464.154653784
190,0.0
2,9, 1, 9, 0,17, 0.00,60.00,Monday
141,22214051.26862709
190,0.0
2,9, 1, 9, 0,18, 0.00,60.00,Monday
141,23093915.943279877
190,0.0
2,9, 1, 9, 0,19, 0.00,60.00,Monday
141,23028926.890846655
190,0.0
2,9, 1, 9, 0,20, 0.00,60.00,Monday
141,21812241.728474863
190,0.0
2,9, 1, 9, 0,21, 0.00,60.00,Monday
141,20581894.703081228
190,0.0
2,9, 1, 9, 0,22, 0.00,60.00,Monday
141,19828182.26735711
190,0.0
2,9, 1, 9, 0,23, 0.00,60.00,Monday
141,19689076.2306896
190,0.0
2,9, 1, 9, 0,24, 0.00,60.00,Monday
141,19768355.353459284
190,0.0
2,10, 1,10, 0, 1, 0.00,60.00,Tuesday
141,20109673.358411565
190,0.0
2,10, 1,10, 0, 2, 0.00,60.00,Tuesday
141,20344345.35347484
190,0.0
2,10, 1,10, 0, 3, 0.00,60.00,Tuesday
141,20389528.17135869
190,0.0
2,10, 1,10, 0, 4, 0.00,60.00,Tuesday
141,20773700.649325576
190,0.0
2,10, 1,10, 0, 5, 0.00,60.00,Tuesday
141,20919919.752729893
190,0.0
2,10, 1,10, 0, 6, 0.00,60.00,Tuesday
141,20973494.88270975
190,0.0
2,10, 1,10, 0, 7, 0.00,60.00,Tuesday
141,21036272.982012644
190,0.0
2,10, 1,10, 0, 8, 0.00,60.00,Tuesday
141,20916633.272342846
190,0.0
2,10, 1,10, 0, 9, 0.00,60.00,Tuesday
141,20739704.529884808
190,0.0
2,10, 1,10, 0,10, 0.00,60.00,Tuesday
141,20493529.834697597
190,0.0
2,10, 1,10, 0,11, 0.00,60.00,Tuesday
141,20126711.281345963
190,0.0
2,10, 1,10, 0,12, 0.00,60.00,Tuesday
141,19704405.153053265
190,0.0
2,10, 1,10, 0,13, 0.00,60.00,Tuesday
141,19646722.254567035
190,0.0
2,10, 1,10, 0,14, 0.00,60.00,Tuesday
141,21253620.88423539
190,0.0
2,10, 1,10, 0,15, 0.00,60.00,Tuesday
141,22554442.846033685
190,0.0
2,10, 1,10, 0,16, 0.00,60.00,Tuesday
141,23359280.66152357
190,0.0
2,10, 1,10, 0,17, 0.00,60.00,Tuesday
141,24186147.02070865
190,0.0
2,10, 1,10, 0,18, 0.00,60.00,Tuesday
141,25253712.533859253
190,0.0
2,10, 1,10, 0,19, 0.00,60.00,Tuesday
141,25819722.16467139
190,0.0
2,10, 1,10, 0,20, 0.00,60.00,Tuesday
141,26243005.206714578
190,0.0
2,10, 1,10, 0,21, 0.00,60.00,Tuesday
141,26909828.224312164
190,0.0
2,10, 1,10, 0,22, 0.00,60.00,Tuesday
141,27287951.794533964
190,0.0
2,10, 1,10, 0,23, 0.00,60.00,Tuesday
141,27045451.245390758
190,0.0
2,10, 1,10, 0,24, 0.00,60.00,Tuesday
141,27475518.626082964
190,0.0
2,11, 1,11, 0, 1, 0.00,60.00,Wednesday
141,27537720.867562532
190,0.0
2,11, 1,11, 0, 2, 0.00,60.00,Wednesday
141,27597375.223532736
190,0.0
2,11, 1,11, 0, 3, 0.00,60.00,Wednesday
141,27827703.95674964
190,0.0
2,11, 1,11, 0, 4, 0.00,60.00,Wednesday
141,27481274.516191393
190,0.0
2,11, 1,11, 0, 5, 0.00,60.00,Wednesday
141,27229747.075694546
190,0.0
2,11, 1,11, 0, 6, 0.00,60.00,Wednesday
141,27128055.189194426
190,0.0
2,11, 1,11, 0, 7, 0.00,60.00,Wednesday
141,27210402.001725763
190,0.0
2,11, 1,11, 0, 8, 0.00,60.00,Wednesday
141,27313264.224275395
190,0.0
2,11, 1,11, 0, 9, 0.00,60.00,Wednesday
141,27241620.953292206
190,0.0
2,11, 1,11, 0,10, 0.00,60.00,Wednesday
141,27050569.050208256
190,0.0
2,11, 1,11, 0,11, 0.00,60.00,Wednesday
141,26729310.271467876
190,0.0
2,11, 1,11, 0,12, 0.00,60.00,Wednesday
141,26203388.657000333
190,0.0
2,11, 1,11, 0,13, 0.00,60.00,Wednesday
141,25799599.094272874
190,0.0
2,11, 1,11, 0,14, 0.00,60.00,Wednesday
141,25632526.968401715
190,0.0
2,11, 1,11, 0,15, 0.00,60.00,Wednesday
141,25594732.29776895
190,0.0
2,11, 1,11, 0,16, 0.00,60.00,Wednesday
141,25616830.260188635
190,0.0
2,11, 1,11, 0,17, 0.00,60.00,Wednesday
141,25337744.692133773
190,0.0
2,11, 1,11, 0,18, 0.00,60.00,Wednesday
141,25070208.606256295
190,0.0
2,11, 1,11, 0,19, 0.00,60.00,Wednesday
141,24886345.01622003
190,0.0
2,11, 1,11, 0,20, 0.00,60.00,Wednesday
141,24870807.50150694
190,0.0
2,11, 1,11, 0,21, 0.00,60.00,Wednesday
141,24866285.345962677
190,0.0
2,11, 1,11, 0,22, 0.00,60.00,Wednesday
141,24294969.839778773
190,0.0
2,11, 1,11, 0,23, 0.00,60.00,Wednesday
141,23853898.082488533
190,0.0
2,11, 1,11, 0,24, 0.00,60.00,Wednesday
141,23889438.43359061
190,0.0
2,12, 1,12, 0, 1, 0.00,60.00,Thursday
141,24103453.707631268
190,0.0
2,12, 1,12, 0, 2, 0.00,60.00,Thursday
141,24135640.759978212
190,0.0
2,12, 1,12, 0, 3, 0.00,60.00,Thursday
141,24005333.27296862
190,0.0
2,12, 1,12, 0, 4, 0.00,60.00,Thursday
141,24029637.9378578
190,0.0
2,12, 1,12, 0, 5, 0.00,60.00,Thursday
141,24235518.791897267
190,0.0
2,12, 1,12, 0, 6, 0.00,60.00,Thursday
141,24714455.652748547
190,0.0
2,12, 1,12, 0, 7, 0.00,60.00,Thursday
141,24975775.73648401
190,0.0
2,12, 1,12, 0, 8, 0.00,60.00,Thursday
141,25043686.66731553
190,0.0
2,12, 1,12, 0, 9, 0.00,60.00,Thursday
141,24715174.18615714
190,0.0
2,12, 1,12, 0,10, 0.00,60.00,Thursday
141,23994633.388836198
190,0.0
2,12, 1,12, 0,11, 0.00,60.00,Thursday
141,23446293.82792202
190,0.0
2,12, 1,12, 0,12, 0.00,60.00,Thursday
141,23133904.688237257
190,0.0
2,12, 1,12, 0,13, 0.00,60.00,Thursday
141,22723112.544149056
190,0.0
2,12, 1,12, 0,14, 0.00,60.00,Thursday
141,22279201.1344478
190,0.0
2,12, 1,12, 0,15, 0.00,60.00,Thursday
141,22264428.578445747
190,0.0
2,12, 1,12, 0,16, 0.00,60.00,Thursday
141,22443740.18945121
190,0.0
2,12, 1,12, 0,17, 0.00,60.00,Thursday
141,23316738.035798304
190,0.0
2,12, 1,12, 0,18, 0.00,60.00,Thursday
141,23826815.108923092
190,0.0
2,12, 1,12, 0,19, 0.00,60.00,Thursday
141,23619466.6722719
190,0.0
2,12, 1,12, 0,20, 0.00,60.00,Thursday
141,23134625.356441528
190,0.0
2,12, 1,12, 0,21, 0.00,60.00,Thursday
141,22935827.42540353
190,0.0
2,12, 1,12, 0,22, 0.00,60.00,Thursday
141,22607218.224167436
190,0.0
2,12, 1,12, 0,23, 0.00,60.00,Thursday
141,22483142.95850322
190,0.0
2,12, 1,12, 0,24, 0.00,60.00,Thursday
141,22505815.780129172
190,0.0
2,13, 1,13, 0, 1, 0.00,60.00,Friday
141,22291690.831005346
190,0.0
2,13, 1,13, 0, 2, 0.00,60.00,Friday
141,22095924.070767358
190,0.0
2,13, 1,13, 0, 3, 0.00,60.00,Friday
141,21803972.205327082
190,0.0
2,13, 1,13, 0, 4, 0.00,60.00,Friday
141,21627343.705909785
190,0.0
2,13, 1,13, 0, 5, 0.00,60.00,Friday
141,21611487.30503946
190,0.0
2,13, 1,13, 0, 6, 0.00,60.00,Friday
141,21670677.58507108
190,0.0
2,13, 1,13, 0, 7, 0.00,60.00,Friday
141,21854337.787462316
190,0.0
2,13, 1,13, 0, 8, 0.00,60.00,Friday
141,21867169.702573482
190,0.0
2,13, 1,13, 0, 9, 0.00,60.00,Friday
141,21650253.996176712
190,0.0
2,13, 1,13, 0,10, 0.00,60.00,Friday
141,22194791.424158912
190,0.0
2,13, 1,13, 0,11, 0.00,60.00,Friday
141,22803966.80934997
190,0.0
2,13, 1,13, 0,12, 0.00,60.00,Friday
141,22842637.75083512
190,0.0
2,13, 1,13, 0,13, 0.00,60.00,Friday
141,22913654.308236618
190,0.0
2,13, 1,13, 0,14, 0.00,60.00,Friday
141,23285559.424823612
190,0.0
2,13, 1,13, 0,15, 0.00,60.00,Friday
141,23483689.856693495
190,0.0
2,13, 1,13, 0,16, 0.00,60.00,Friday
141,23398512.28501015
190,0.0
2,13, 1,13, 0,17, 0.00,60.00,Friday
141,23257781.562494006
190,0.0
2,13, 1,13, 0,18, 0.00,60.00,Friday
141,23184759.710358486
190,0.0
2,13, 1,13, 0,19, 0.00,60.00,Friday
141,23532315.18462591
190,0.0
2,13, 1,13, 0,20, 0.00,60.00,Friday
141,24158550.81493263
190,0.0
2,13, 1,13, 0,21, 0.00,60.00,Friday
141,24717632.881958917
190,0.0
2,13, 1,13, 0,22, 0.00,60.00,Friday
141,25068325.94183759
190,0.0
2,13, 1,13, 0,23, 0.00,60.00,Friday
141,24929407.24177425
190,0.0
2,13, 1,13, 0,24, 0.00,60.00,Friday
141,26403835.23107405
190,0.0
2,14, 1,14, 0, 1, 0.00,60.00,Saturday
141,27416613.45708278
190,0.0
2,14, 1,14, 0, 2, 0.00,60.00,Saturday
141,26985662.31770771
190,0.0
2,14, 1,14, 0, 3, 0.00,60.00,Saturday
141,27066436.12020083
190,0.0
2,14, 1,14, 0, 4, 0.00,60.00,Saturday
141,26901384.40011791
190,0.0
2,14, 1,14, 0, 5, 0.00,60.00,Saturday
141,26851138.00827635
190,0.0
2,14, 1,14, 0, 6, 0.00,60.00,Saturday
141,27925167.117302105
190,0.0
2,14, 1,14, 0, 7, 0.00,60.00,Saturday
141,28729103.479239374
190,0.0
2,14, 1,14, 0, 8, 0.00,60.00,Saturday
141,28453757.046321012
190,0.0
2,14, 1,14, 0, 9, 0.00,60.00,Saturday
141,28873179.664705943
190,0.0
2,14, 1,14, 0,10, 0.00,60.00,Saturday
141,29442438.489938557
190,0.0
2,14, 1,14, 0,11, 0.00,60.00,Saturday
141,29189320.750037428
190,0.0
2,14, 1,14, 0,12, 0.00,60.00,Saturday
141,28818446.782160383
190,0.0
2,14, 1,14, 0,13, 0.00,60.00,Saturday
141,28184209.681828465
190,0.0
2,14, 1,14, 0,14, 0.00,60.00,Saturday
141,26911524.07059557
190,0.0
2,14, 1,14, 0,15, 0.00,60.00,Saturday
141,26748877.89998374
190,0.0
2,14, 1,14, 0,16, 0.00,60.00,Saturday
141,27034936.77676547
190,0.0
2,14, 1,14, 0,17, 0.00,60.00,Saturday
141,27546405.05666156
190,0.0
2,14, 1,14, 0,18, 0.00,60.00,Saturday
141,28492404.376280755
190,0.0
2,14, 1,14, 0,19, 0.00,60.00,Saturday
141,28514747.285624616
190,0.0
2,14, 1,14, 0,20, 0.00,60.00,Saturday
141,28642139.0428581
190,0.0
2,14, 1,14, 0,21, 0.00,60.00,Saturday
141,28465491.50373982
190,0.0
2,14, 1,14, 0,22, 0.00,60.00,Saturday
141,28138913.861995187
190,0.0
2,14, 1,14, 0,23, 0.00,60.00,Saturday
141,27903597.40239404
190,0.0
2,14, 1,14, 0,24, 0.00,60.00,Saturday
141,27804913.276068002
190,0.0
2,15, 1,15, 0, 1, 0.00,60.00,Sunday
141,27235772.829137422
190,0.0
2,15, 1,15, 0, 2, 0.00,60.00,Sunday
141,25886515.662180487
190,0.0
2,15, 1,15, 0, 3, 0.00,60.00,Sunday
141,25234133.76652936
190,0.0
2,15, 1,15, 0, 4, 0.00,60.00,Sunday
141,24779721.429148164
190,0.0
2,15, 1,15, 0, 5, 0.00,60.00,Sunday
141,23938435.98399867
190,0.0
2,15, 1,15, 0, 6, 0.00,60.00,Sunday
141,23054055.24674613
190,0.0
2,15, 1,15, 0, 7, 0.00,60.00,Sunday
141,22183332.357455485
190,0.0
2,15, 1,15, 0, 8, 0.00,60.00,Sunday
141,21615470.78906707
190,0.0
2,15, 1,15, 0, 9, 0.00,60.00,Sunday
141,21191341.254105285
190,0.0
2,15, 1,15, 0,10, 0.00,60.00,Sunday
141,21152655.989960637
190,0.0
2,15, 1,15, 0,11, 0.00,60.00,Sunday
141,21651870.300145753
190,0.0
2,15, 1,15, 0,12, 0.00,60.00,Sunday
141,22899102.8857012
190,0.0
2,15, 1,15, 0,13, 0.00,60.00,Sunday
141,23827548.89169609
190,0.0
2,15, 1,15, 0,14, 0.00,60.00,Sunday
141,24226204.771834295
190,0.0
2,15, 1,15, 0,15, 0.00,60.00,Sunday
141,24398263.862698898
190,0.0
2,15, 1,15, 0,16, 0.00,60.00,Sunday
141,24121273.44189371
190,0.0
2,15, 1,15, 0,17, 0.00,60.00,Sunday
141,23935548.476924457
190,0.0
2,15, 1,15, 0,18, 0.00,60.00,Sunday
141,24030202.572554685
190,0.0
2,15, 1,15, 0,19, 0.00,60.00,Sunday
141,24248975.06997425
190,0.0
2,15, 1,15, 0,20, 0.00,60.00,Sunday
141,24524236.138348322
190,0.0
2,15, 1,15, 0,21, 0.00,60.00,Sunday
141,25094127.544465948
190,0.0
2,15, 1,15, 0,22, 0.00,60.00,Sunday
141,25351229.77738397
190,0.0
2,15, 1,15, 0,23, 0.00,60.00,Sunday
141,25384074.62416125
190,0.0
2,15, 1,15, 0,24, 0.00,60.00,Sunday
141,25525550.134019993
190,0.0
2,16, 1,16, 0, 1, 0.00,60.00,Monday
141,26038220.337190285
190,0.0
2,16, 1,16, 0, 2, 0.00,60.00,Monday
141,26516691.183571722
190,0.0
2,16, 1,16, 0, 3, 0.00,60.00,Monday
141,26782301.98826778
190,0.0
2,16, 1,16, 0, 4, 0.00,60.00,Monday
141,26973890.763326183
190,0.0
2,16, 1,16, 0, 5, 0.00,60.00,Monday
141,27263860.139330603
190,0.0
2,16, 1,16, 0, 6, 0.00,60.00,Monday
141,27511958.761133097
190,0.0
2,16, 1,16, 0, 7, 0.00,60.00,Monday
141,28029372.944091745
190,0.0
2,16, 1,16, 0, 8, 0.00,60.00,Monday
141,28515199.67791766
190,0.0
2,16, 1,16, 0, 9, 0.00,60.00,Monday
141,28718191.836630147
190,0.0
2,16, 1,16, 0,10, 0.00,60.00,Monday
141,28714558.518736344
190,0.0
2,16, 1,16, 0,11, 0.00,60.00,Monday
141,27605550.629192926
190,0.0
2,16, 1,16, 0,12, 0.00,60.00,Monday
141,26626787.62549953
190,0.0
2,16, 1,16, 0,13, 0.00,60.00,Monday
141,25868193.20572604
190,0.0
2,16, 1,16, 0,14, 0.00,60.00,Monday
141,25369249.873988364
190,0.0
2,16, 1,16, 0,15, 0.00,60.00,Monday
141,25323845.424490217
190,0.0
2,16, 1,16, 0,16, 0.00,60.00,Monday
141,25557887.273835912
190,0.0
2,16, 1,16, 0,17, 0.00,60.00,Monday
141,26113383.054647103
190,0.0
2,16, 1,16, 0,18, 0.00,60.00,Monday
141,27163943.711103827
190,0.0
2,16, 1,16, 0,19, 0.00,60.00,Monday
141,28265647.77921166
190,0.0
2,16, 1,16, 0,20, 0.00,60.00,Monday
141,28824032.6802472
190,0.0
2,16, 1,16, 0,21, 0.00,60.00,Monday
141,29263466.507996682
190,0.0
2,16, 1,16, 0,22, 0.00,60.00,Monday
141,29660811.010817423
190,0.0
2,16, 1,16, 0,23, 0.00,60.00,Monday
141,30260960.424317468
190,0.0
2,16, 1,16, 0,24, 0.00,60.00,Monday
141,30389126.961198702
190,0.0
2,17, 1,17, 0, 1, 0.00,60.00,Tuesday
141,30562162.424175583
190,0.0
2,17, 1,17, 0, 2, 0.00,60.00,Tuesday
141,31278956.495471932
190,0.0
2,17, 1,17, 0, 3, 0.00,60.00,Tuesday
141,31870662.982822318
190,0.0
2,17, 1,17, 0, 4, 0.00,60.00,Tuesday
141,32370080.75167309
190,0.0
2,17, 1,17, 0, 5, 0.00,60.00,Tuesday
141,32928096.397661276
190,0.0
2,17, 1,17, 0, 6, 0.00,60.00,Tuesday
141,33488473.760247275
190,0.0
2,17, 1,17, 0, 7, 0.00,60.00,Tuesday
141,33812790.65051565
190,0.0
2,17, 1,17, 0, 8, 0.00,60.00,Tuesday
141,33973285.28569088
190,0.0
2,17, 1,17, 0, 9, 0.00,60.00,Tuesday
141,33983922.47658263
190,0.0
2,17, 1,17, 0,10, 0.00,60.00,Tuesday
141,32696916.110283636
190,0.0
2,17, 1,17, 0,11, 0.00,60.00,Tuesday
141,30812808.87906467
190,0.0
2,17, 1,17, 0,12, 0.00,60.00,Tuesday
141,29189686.552416325
190,0.0
2,17, 1,17, 0,13, 0.00,60.00,Tuesday
141,28246789.144399673
190,0.0
2,17, 1,17, 0,14, 0.00,60.00,Tuesday
141,28051744.05135306
190,0.0
2,17, 1,17, 0,15, 0.00,60.00,Tuesday
141,28381063.657320127
190,0.0
2,17, 1,17, 0,16, 0.00,60.00,Tuesday
141,29323728.562894315
190,0.0
2,17, 1,17, 0,17, 0.00,60.00,Tuesday
141,30087185.70219946
190,0.0
2,17, 1,17, 0,18, 0.00,60.00,Tuesday
141,30208693.399660848
190,0.0
2,17, 1,17, 0,19, 0.00,60.00,Tuesday
141,30185580.792478353
190,0.0
2,17, 1,17, 0,20, 0.00,60.00,Tuesday
141,30382466.586291652
190,0.0
2,17, 1,17, 0,21, 0.00,60.00,Tuesday
141,30686929.560901828
190,0.0
2,17, 1,17, 0,22, 0.00,60.00,Tuesday
141,30750599.7503777
190,0.0
2,17, 1,17, 0,23, 0.00,60.00,Tuesday
141,30797994.604746092
190,0.0
2,17, 1,17, 0,24, 0.00,60.00,Tuesday
141,31188366.936696663
190,0.0
2,18, 1,18, 0, 1, 0.00,60.00,Wednesday
141,31430451.49064439
190,0.0
2,18, 1,18, 0, 2, 0.00,60.00,Wednesday
141,31598658.428546447
190,0.0
2,18, 1,18, 0, 3, 0.00,60.00,Wednesday
141,31639625.7585474
190,0.0
2,18, 1,18, 0, 4, 0.00,60.00,Wednesday
141,31590024.81264224
190,0.0
2,18, 1,18, 0, 5, 0.00,60.00,Wednesday
141,31596750.020260796
190,0.0
2,18, 1,18, 0, 6, 0.00,60.00,Wednesday
141,31679770.56624444
190,0.0
2,18, 1,18, 0, 7, 0.00,60.00,Wednesday
141,32286483.541888043
190,0.0
2,18, 1,18, 0, 8, 0.00,60.00,Wednesday
141,32452559.063405115
190,0.0
2,18, 1,18, 0, 9, 0.00,60.00,Wednesday
141,32532917.765085828
190,0.0
2,18, 1,18, 0,10, 0.00,60.00,Wednesday
141,32475727.21305298
190,0.0
2,18, 1,18, 0,11, 0.00,60.00,Wednesday
141,31851294.664036516
190,0.0
2,18, 1,18, 0,12, 0.00,60.00,Wednesday
141,31372864.48566986
190,0.0
2,18, 1,18, 0,13, 0.00,60.00,Wednesday
141,31580149.602957174
190,0.0
2,18, 1,18, 0,14, 0.00,60.00,Wednesday
141,32041812.828529783
190,0.0
2,18, 1,18, 0,15, 0.00,60.00,Wednesday
141,32295064.21614218
190,0.0
2,18, 1,18, 0,16, 0.00,60.00,Wednesday
141,32834310.99935896
190,0.0
2,18, 1,18, 0,17, 0.00,60.00,Wednesday
141,33109760.9876453
190,0.0
2,18, 1,18, 0,18, 0.00,60.00,Wednesday
141,32914881.380722452
190,0.0
2,18, 1,18, 0,19, 0.00,60.00,Wednesday
141,32823330.77869934
190,0.0
2,18, 1,18, 0,20, 0.00,60.00,Wednesday
141,32922604.18877733
190,0.0
2,18, 1,18, 0,21, 0.00,60.00,Wednesday
141,32993875.13786091
190,0.0
2,18, 1,18, 0,22, 0.00,60.00,Wednesday
141,33168950.75154291
190,0.0
2,18, 1,18, 0,23, 0.00,60.00,Wednesday
141,33296378.43331596
190,0.0
2,18, 1,18, 0,24, 0.00,60.00,Wednesday
141,33466080.9344469
190,0.0
2,19, 1,19, 0, 1, 0.00,60.00,Thursday