Program Version,EnergyPlus, Version 24.2.0-94a887817b, YMD=2025.04.24 13:20
1,5,Environment Title[],Latitude[deg],Longitude[deg],Time Zone[],Elevation[m]
2,8,Day of Simulation[],Month[],Day of Month[],DST Indicator[1=yes 0=no],Hour[],StartMinute[],EndMinute[],DayType
3,5,Cumulative Day of Simulation[],Month[],Day of Month[],DST Indicator[1=yes 0=no],DayType  ! When Daily Report Variables Requested
4,2,Cumulative Days of Simulation[],Month[]  ! When Monthly Report Variables Requested
5,1,Cumulative Days of Simulation[] ! When Run Period Report Variables Requested
6,1,Calendar Year of Simulation[] ! When Annual Report Variables Requested
141,1,ZONE_0599100000305504 IDEAL LOADS AIR SYSTEM,Zone Ideal Loads Supply Air Total Heating Energy [J] !Hourly
190,1,ZONE_0599100000305504 IDEAL LOADS AIR SYSTEM,Zone Ideal Loads Supply Air Total Cooling Energy [J] !Hourly
End of Data Dictionary
1,RUN PERIOD 1,  51.96,   4.45,   1.00,  -4.50
2,1, 1, 1, 0, 1, 0.00,60.00,Sunday
141,55123660.25308457
190,0.0
2,1, 1, 1, 0, 2, 0.00,60.00,Sunday
141,57028359.75108863
190,0.0
2,1, 1, 1, 0, 3, 0.00,60.00,Sunday
141,57042180.75211294
190,0.0
2,1, 1, 1, 0, 4, 0.00,60.00,Sunday
141,58465373.58071189
190,0.0
2,1, 1, 1, 0, 5, 0.00,60.00,Sunday
141,59471307.03774428
190,0.0
2,1, 1, 1, 0, 6, 0.00,60.00,Sunday
141,59664986.030216366
190,0.0
2,1, 1, 1, 0, 7, 0.00,60.00,Sunday
141,59942557.37472875
190,0.0
2,1, 1, 1, 0, 8, 0.00,60.00,Sunday
141,59944611.29860522
190,0.0
2,1, 1, 1, 0, 9, 0.00,60.00,Sunday
141,59975958.42719122
190,0.0
2,1, 1, 1, 0,10, 0.00,60.00,Sunday
141,59681682.52160432
190,0.0
2,1, 1, 1, 0,11, 0.00,60.00,Sunday
141,58684700.140912116
190,0.0
2,1, 1, 1, 0,12, 0.00,60.00,Sunday
141,56949970.84793089
190,0.0
2,1, 1, 1, 0,13, 0.00,60.00,Sunday
141,56093033.84486088
190,0.0
2,1, 1, 1, 0,14, 0.00,60.00,Sunday
141,54780609.07396822
190,0.0
2,1, 1, 1, 0,15, 0.00,60.00,Sunday
141,53730275.72618849
190,0.0
2,1, 1, 1, 0,16, 0.00,60.00,Sunday
141,54312751.964191794
190,0.0
2,1, 1, 1, 0,17, 0.00,60.00,Sunday
141,55075046.773453
190,0.0
2,1, 1, 1, 0,18, 0.00,60.00,Sunday
141,55121745.990895465
190,0.0
2,1, 1, 1, 0,19, 0.00,60.00,Sunday
141,55189016.25176998
190,0.0
2,1, 1, 1, 0,20, 0.00,60.00,Sunday
141,54975746.45326847
190,0.0
2,1, 1, 1, 0,21, 0.00,60.00,Sunday
141,54711912.60869537
190,0.0
2,1, 1, 1, 0,22, 0.00,60.00,Sunday
141,54798573.72850168
190,0.0
2,1, 1, 1, 0,23, 0.00,60.00,Sunday
141,53506492.798117146
190,0.0
2,1, 1, 1, 0,24, 0.00,60.00,Sunday
141,52572816.01914643
190,0.0
2,2, 1, 2, 0, 1, 0.00,60.00,Monday
141,52787305.417634115
190,0.0
2,2, 1, 2, 0, 2, 0.00,60.00,Monday
141,51516639.51296314
190,0.0
2,2, 1, 2, 0, 3, 0.00,60.00,Monday
141,50540617.72100765
190,0.0
2,2, 1, 2, 0, 4, 0.00,60.00,Monday
141,49535938.84246136
190,0.0
2,2, 1, 2, 0, 5, 0.00,60.00,Monday
141,47298051.96961501
190,0.0
2,2, 1, 2, 0, 6, 0.00,60.00,Monday
141,46202884.82436664
190,0.0
2,2, 1, 2, 0, 7, 0.00,60.00,Monday
141,44472058.66945253
190,0.0
2,2, 1, 2, 0, 8, 0.00,60.00,Monday
141,42343127.75880869
190,0.0
2,2, 1, 2, 0, 9, 0.00,60.00,Monday
141,42843257.64992605
190,0.0
2,2, 1, 2, 0,10, 0.00,60.00,Monday
141,44200851.37462014
190,0.0
2,2, 1, 2, 0,11, 0.00,60.00,Monday
141,45048621.923415296
190,0.0
2,2, 1, 2, 0,12, 0.00,60.00,Monday
141,43995978.38752482
190,0.0
2,2, 1, 2, 0,13, 0.00,60.00,Monday
141,43504163.267546386
190,0.0
2,2, 1, 2, 0,14, 0.00,60.00,Monday
141,44501497.04181912
190,0.0
2,2, 1, 2, 0,15, 0.00,60.00,Monday
141,44956136.4771557
190,0.0
2,2, 1, 2, 0,16, 0.00,60.00,Monday
141,45984898.074170336
190,0.0
2,2, 1, 2, 0,17, 0.00,60.00,Monday
141,47023643.659884244
190,0.0
2,2, 1, 2, 0,18, 0.00,60.00,Monday
141,47297331.85311871
190,0.0
2,2, 1, 2, 0,19, 0.00,60.00,Monday
141,48486595.399840444
190,0.0
2,2, 1, 2, 0,20, 0.00,60.00,Monday
141,49606980.03844323
190,0.0
2,2, 1, 2, 0,21, 0.00,60.00,Monday
141,49919921.79480799
190,0.0
2,2, 1, 2, 0,22, 0.00,60.00,Monday
141,50055703.58734799
190,0.0
2,2, 1, 2, 0,23, 0.00,60.00,Monday
141,50272322.11787304
190,0.0
2,2, 1, 2, 0,24, 0.00,60.00,Monday
141,50514744.36371195
190,0.0
2,3, 1, 3, 0, 1, 0.00,60.00,Tuesday
141,50784519.18959743
190,0.0
2,3, 1, 3, 0, 2, 0.00,60.00,Tuesday
141,50952385.35846059
190,0.0
2,3, 1, 3, 0, 3, 0.00,60.00,Tuesday
141,51069860.85879798
190,0.0
2,3, 1, 3, 0, 4, 0.00,60.00,Tuesday
141,51351351.91226049
190,0.0
2,3, 1, 3, 0, 5, 0.00,60.00,Tuesday
141,52664013.442863785
190,0.0
2,3, 1, 3, 0, 6, 0.00,60.00,Tuesday
141,53490270.720178485
190,0.0
2,3, 1, 3, 0, 7, 0.00,60.00,Tuesday
141,53861905.30196588
190,0.0
2,3, 1, 3, 0, 8, 0.00,60.00,Tuesday
141,53715766.981960684
190,0.0
2,3, 1, 3, 0, 9, 0.00,60.00,Tuesday
141,54680825.9354108
190,0.0
2,3, 1, 3, 0,10, 0.00,60.00,Tuesday
141,55115458.55928393
190,0.0
2,3, 1, 3, 0,11, 0.00,60.00,Tuesday
141,55185269.01745394
190,0.0
2,3, 1, 3, 0,12, 0.00,60.00,Tuesday
141,55443949.58868343
190,0.0
2,3, 1, 3, 0,13, 0.00,60.00,Tuesday
141,56978847.59841035
190,0.0
2,3, 1, 3, 0,14, 0.00,60.00,Tuesday
141,57840446.436768845
190,0.0
2,3, 1, 3, 0,15, 0.00,60.00,Tuesday
141,57663846.924373575
190,0.0
2,3, 1, 3, 0,16, 0.00,60.00,Tuesday
141,57492422.68266975
190,0.0
2,3, 1, 3, 0,17, 0.00,60.00,Tuesday
141,57526505.03600747
190,0.0
2,3, 1, 3, 0,18, 0.00,60.00,Tuesday
141,57620450.81316865
190,0.0
2,3, 1, 3, 0,19, 0.00,60.00,Tuesday
141,57327855.028894305
190,0.0
2,3, 1, 3, 0,20, 0.00,60.00,Tuesday
141,56059922.46976825
190,0.0
2,3, 1, 3, 0,21, 0.00,60.00,Tuesday
141,52729136.25743355
190,0.0
2,3, 1, 3, 0,22, 0.00,60.00,Tuesday
141,50982191.30025814
190,0.0
2,3, 1, 3, 0,23, 0.00,60.00,Tuesday
141,52319880.37546244
190,0.0
2,3, 1, 3, 0,24, 0.00,60.00,Tuesday
141,54558603.41010785
190,0.0
2,4, 1, 4, 0, 1, 0.00,60.00,Wednesday
141,55705625.96362473
190,0.0
2,4, 1, 4, 0, 2, 0.00,60.00,Wednesday
141,55622276.349904
190,0.0
2,4, 1, 4, 0, 3, 0.00,60.00,Wednesday
141,55416767.5485173
190,0.0
2,4, 1, 4, 0, 4, 0.00,60.00,Wednesday
141,55912608.1180193
190,0.0
2,4, 1, 4, 0, 5, 0.00,60.00,Wednesday
141,57461165.0023064
190,0.0
2,4, 1, 4, 0, 6, 0.00,60.00,Wednesday
141,57171432.72074112
190,0.0
2,4, 1, 4, 0, 7, 0.00,60.00,Wednesday
141,57157286.114633866
190,0.0
2,4, 1, 4, 0, 8, 0.00,60.00,Wednesday
141,57762835.94750226
190,0.0
2,4, 1, 4, 0, 9, 0.00,60.00,Wednesday
141,58192797.21681328
190,0.0
2,4, 1, 4, 0,10, 0.00,60.00,Wednesday
141,58535022.63393792
190,0.0
2,4, 1, 4, 0,11, 0.00,60.00,Wednesday
141,55963911.67539565
190,0.0
2,4, 1, 4, 0,12, 0.00,60.00,Wednesday
141,51637735.040627435
190,0.0
2,4, 1, 4, 0,13, 0.00,60.00,Wednesday
141,50549192.823762804
190,0.0
2,4, 1, 4, 0,14, 0.00,60.00,Wednesday
141,50462741.964192495
190,0.0
2,4, 1, 4, 0,15, 0.00,60.00,Wednesday
141,50061577.16525007
190,0.0
2,4, 1, 4, 0,16, 0.00,60.00,Wednesday
141,51833533.4027496
190,0.0
2,4, 1, 4, 0,17, 0.00,60.00,Wednesday
141,54999409.52001275
190,0.0
2,4, 1, 4, 0,18, 0.00,60.00,Wednesday
141,57721522.77150176
190,0.0
2,4, 1, 4, 0,19, 0.00,60.00,Wednesday
141,60503600.25404538
190,0.0
2,4, 1, 4, 0,20, 0.00,60.00,Wednesday
141,61973378.816219725
190,0.0
2,4, 1, 4, 0,21, 0.00,60.00,Wednesday
141,62685541.025087945
190,0.0
2,4, 1, 4, 0,22, 0.00,60.00,Wednesday
141,64166221.39906771
190,0.0
2,4, 1, 4, 0,23, 0.00,60.00,Wednesday
141,63719565.35303898
190,0.0
2,4, 1, 4, 0,24, 0.00,60.00,Wednesday
141,62905059.665688656
190,0.0
2,5, 1, 5, 0, 1, 0.00,60.00,Thursday
141,63494980.52802594
190,0.0
2,5, 1, 5, 0, 2, 0.00,60.00,Thursday
141,63017525.0111121
190,0.0
2,5, 1, 5, 0, 3, 0.00,60.00,Thursday
141,62541383.0554504
190,0.0
2,5, 1, 5, 0, 4, 0.00,60.00,Thursday
141,62839206.31037609
190,0.0
2,5, 1, 5, 0, 5, 0.00,60.00,Thursday
141,62187546.03886427
190,0.0
2,5, 1, 5, 0, 6, 0.00,60.00,Thursday
141,61937500.70433479
190,0.0
2,5, 1, 5, 0, 7, 0.00,60.00,Thursday
141,62483841.03683468
190,0.0
2,5, 1, 5, 0, 8, 0.00,60.00,Thursday
141,62930795.4431649
190,0.0
2,5, 1, 5, 0, 9, 0.00,60.00,Thursday
141,63055552.56999326
190,0.0
2,5, 1, 5, 0,10, 0.00,60.00,Thursday
141,63843563.50846839
190,0.0
2,5, 1, 5, 0,11, 0.00,60.00,Thursday
141,63541195.34516928
190,0.0
2,5, 1, 5, 0,12, 0.00,60.00,Thursday
141,61553151.08851956
190,0.0
2,5, 1, 5, 0,13, 0.00,60.00,Thursday
141,60731317.201195985
190,0.0
2,5, 1, 5, 0,14, 0.00,60.00,Thursday
141,59140620.33747087
190,0.0
2,5, 1, 5, 0,15, 0.00,60.00,Thursday
141,57754449.70654163
190,0.0
2,5, 1, 5, 0,16, 0.00,60.00,Thursday
141,58266853.78335039
190,0.0
2,5, 1, 5, 0,17, 0.00,60.00,Thursday
141,57667414.61827101
190,0.0
2,5, 1, 5, 0,18, 0.00,60.00,Thursday
141,56724751.8635522
190,0.0
2,5, 1, 5, 0,19, 0.00,60.00,Thursday
141,56737042.81136824
190,0.0
2,5, 1, 5, 0,20, 0.00,60.00,Thursday
141,56408655.264030516
190,0.0
2,5, 1, 5, 0,21, 0.00,60.00,Thursday
141,55993951.0090538
190,0.0
2,5, 1, 5, 0,22, 0.00,60.00,Thursday
141,55858152.193705015
190,0.0
2,5, 1, 5, 0,23, 0.00,60.00,Thursday
141,56000872.647576615
190,0.0
2,5, 1, 5, 0,24, 0.00,60.00,Thursday
141,56194896.224322416
190,0.0
2,6, 1, 6, 0, 1, 0.00,60.00,Friday
141,56302140.62003911
190,0.0
2,6, 1, 6, 0, 2, 0.00,60.00,Friday
141,56412837.39957608
190,0.0
2,6, 1, 6, 0, 3, 0.00,60.00,Friday
141,57590866.088882014
190,0.0
2,6, 1, 6, 0, 4, 0.00,60.00,Friday
141,58740390.39680132
190,0.0
2,6, 1, 6, 0, 5, 0.00,60.00,Friday
141,59324316.93172428
190,0.0
2,6, 1, 6, 0, 6, 0.00,60.00,Friday
141,60064793.24341272
190,0.0
2,6, 1, 6, 0, 7, 0.00,60.00,Friday
141,61196797.94758797
190,0.0
2,6, 1, 6, 0, 8, 0.00,60.00,Friday
141,62293429.184197545
190,0.0
2,6, 1, 6, 0, 9, 0.00,60.00,Friday
141,63639884.681006335
190,0.0
2,6, 1, 6, 0,10, 0.00,60.00,Friday
141,64491931.49937913
190,0.0
2,6, 1, 6, 0,11, 0.00,60.00,Friday
141,63742848.436329015
190,0.0
2,6, 1, 6, 0,12, 0.00,60.00,Friday
141,62522682.07968645
190,0.0
2,6, 1, 6, 0,13, 0.00,60.00,Friday
141,61986041.271206126
190,0.0
2,6, 1, 6, 0,14, 0.00,60.00,Friday
141,61763942.16970201
190,0.0
2,6, 1, 6, 0,15, 0.00,60.00,Friday
141,61352430.36686281
190,0.0
2,6, 1, 6, 0,16, 0.00,60.00,Friday
141,60385912.9674623
190,0.0
2,6, 1, 6, 0,17, 0.00,60.00,Friday
141,59359073.3832743
190,0.0
2,6, 1, 6, 0,18, 0.00,60.00,Friday
141,58806416.75925408
190,0.0
2,6, 1, 6, 0,19, 0.00,60.00,Friday
141,58230550.16521782
190,0.0
2,6, 1, 6, 0,20, 0.00,60.00,Friday
141,57026385.44990824
190,0.0
2,6, 1, 6, 0,21, 0.00,60.00,Friday
141,54123792.28230705
190,0.0
2,6, 1, 6, 0,22, 0.00,60.00,Friday
141,50684929.58269952
190,0.0
2,6, 1, 6, 0,23, 0.00,60.00,Friday
141,49210706.453520656
190,0.0
2,6, 1, 6, 0,24, 0.00,60.00,Friday
141,49642642.845748655
190,0.0
2,7, 1, 7, 0, 1, 0.00,60.00,Saturday
141,52501963.71506926
190,0.0
2,7, 1, 7, 0, 2, 0.00,60.00,Saturday
141,55319715.89278386
190,0.0
2,7, 1, 7, 0, 3, 0.00,60.00,Saturday
141,54910109.28948881
190,0.0
2,7, 1, 7, 0, 4, 0.00,60.00,Saturday
141,55126637.05454275
190,0.0
2,7, 1, 7, 0, 5, 0.00,60.00,Saturday
141,57045997.73458096
190,0.0
2,7, 1, 7, 0, 6, 0.00,60.00,Saturday
141,58553483.74241622
190,0.0
2,7, 1, 7, 0, 7, 0.00,60.00,Saturday
141,59446154.43773253
190,0.0
2,7, 1, 7, 0, 8, 0.00,60.00,Saturday
141,59906165.163550206
190,0.0
2,7, 1, 7, 0, 9, 0.00,60.00,Saturday
141,58876718.227204576
190,0.0
2,7, 1, 7, 0,10, 0.00,60.00,Saturday
141,57983732.33556239
190,0.0
2,7, 1, 7, 0,11, 0.00,60.00,Saturday
141,55241744.38587244
190,0.0
2,7, 1, 7, 0,12, 0.00,60.00,Saturday
141,52454520.66362789
190,0.0
2,7, 1, 7, 0,13, 0.00,60.00,Saturday
141,50354575.45147991
190,0.0
2,7, 1, 7, 0,14, 0.00,60.00,Saturday
141,49137492.24334749
190,0.0
2,7, 1, 7, 0,15, 0.00,60.00,Saturday
141,49276553.00745798
190,0.0
2,7, 1, 7, 0,16, 0.00,60.00,Saturday
141,49806960.18025443
190,0.0
2,7, 1, 7, 0,17, 0.00,60.00,Saturday
141,50137726.21663433
190,0.0
2,7, 1, 7, 0,18, 0.00,60.00,Saturday
141,51091917.14024667
190,0.0
2,7, 1, 7, 0,19, 0.00,60.00,Saturday
141,52043163.27621251
190,0.0
2,7, 1, 7, 0,20, 0.00,60.00,Saturday
141,53055106.57759923
190,0.0
2,7, 1, 7, 0,21, 0.00,60.00,Saturday
141,53809241.304404974
190,0.0
2,7, 1, 7, 0,22, 0.00,60.00,Saturday
141,53790227.02968762
190,0.0
2,7, 1, 7, 0,23, 0.00,60.00,Saturday
141,53964019.30180177
190,0.0
2,7, 1, 7, 0,24, 0.00,60.00,Saturday
141,53963846.778325334
190,0.0
2,8, 1, 8, 0, 1, 0.00,60.00,Sunday
141,53288139.238539964
190,0.0
2,8, 1, 8, 0, 2, 0.00,60.00,Sunday
141,52543792.104300395
190,0.0
2,8, 1, 8, 0, 3, 0.00,60.00,Sunday
141,51934656.709602095
190,0.0
2,8, 1, 8, 0, 4, 0.00,60.00,Sunday
141,50946039.531919785
190,0.0
2,8, 1, 8, 0, 5, 0.00,60.00,Sunday
141,49647378.79945343
190,0.0
2,8, 1, 8, 0, 6, 0.00,60.00,Sunday
141,48675799.523018815
190,0.0
2,8, 1, 8, 0, 7, 0.00,60.00,Sunday
141,47913107.12756193
190,0.0
2,8, 1, 8, 0, 8, 0.00,60.00,Sunday
141,47212807.53896039
190,0.0
2,8, 1, 8, 0, 9, 0.00,60.00,Sunday
141,46420096.90138588
190,0.0
2,8, 1, 8, 0,10, 0.00,60.00,Sunday
141,46122116.904393196
190,0.0
2,8, 1, 8, 0,11, 0.00,60.00,Sunday
141,45845608.004372366
190,0.0
2,8, 1, 8, 0,12, 0.00,60.00,Sunday
141,45897385.14967155
190,0.0
2,8, 1, 8, 0,13, 0.00,60.00,Sunday
141,45616224.52660882
190,0.0
2,8, 1, 8, 0,14, 0.00,60.00,Sunday
141,45663976.005612545
190,0.0
2,8, 1, 8, 0,15, 0.00,60.00,Sunday
141,47271837.51939902
190,0.0
2,8, 1, 8, 0,16, 0.00,60.00,Sunday
141,48417925.94677314
190,0.0
2,8, 1, 8, 0,17, 0.00,60.00,Sunday
141,48408227.02339428
190,0.0
2,8, 1, 8, 0,18, 0.00,60.00,Sunday
141,48936557.24090104
190,0.0
2,8, 1, 8, 0,19, 0.00,60.00,Sunday
141,48659131.66383908
190,0.0
2,8, 1, 8, 0,20, 0.00,60.00,Sunday
141,47663785.10386907
190,0.0
2,8, 1, 8, 0,21, 0.00,60.00,Sunday
141,46978992.28024051
190,0.0
2,8, 1, 8, 0,22, 0.00,60.00,Sunday
141,47277193.41590022
190,0.0
2,8, 1, 8, 0,23, 0.00,60.00,Sunday
141,47567414.31284327
190,0.0
2,8, 1, 8, 0,24, 0.00,60.00,Sunday
141,48277032.35609129
190,0.0
2,9, 1, 9, 0, 1, 0.00,60.00,Monday
141,48481917.67978735
190,0.0
2,9, 1, 9, 0, 2, 0.00,60.00,Monday
141,48641846.44563271
190,0.0
2,9, 1, 9, 0, 3, 0.00,60.00,Monday
141,48583437.67255202
190,0.0
2,9, 1, 9, 0, 4, 0.00,60.00,Monday
141,48291261.91930119
190,0.0
2,9, 1, 9, 0, 5, 0.00,60.00,Monday
141,47508303.02647141
190,0.0
2,9, 1, 9, 0, 6, 0.00,60.00,Monday
141,46690739.572838515
190,0.0
2,9, 1, 9, 0, 7, 0.00,60.00,Monday
141,46087128.38376976
190,0.0
2,9, 1, 9, 0, 8, 0.00,60.00,Monday
141,45741999.67248311
190,0.0
2,9, 1, 9, 0, 9, 0.00,60.00,Monday
141,44776676.88720857
190,0.0
2,9, 1, 9, 0,10, 0.00,60.00,Monday
141,42456947.63296614
190,0.0
2,9, 1, 9, 0,11, 0.00,60.00,Monday
141,40470652.71136335
190,0.0
2,9, 1, 9, 0,12, 0.00,60.00,Monday
141,39340874.83034429
190,0.0
2,9, 1, 9, 0,13, 0.00,60.00,Monday
141,38370618.22451679
190,0.0
2,9, 1, 9, 0,14, 0.00,60.00,Monday
141,37602795.52440615
190,0.0
2,9, 1, 9, 0,15, 0.00,60.00,Monday
141,37227809.79579551
190,0.0
2,9, 1, 9, 0,16, 0.00,60.00,Monday
141,37521000.27734986
190,0.0
2,9, 1, 9, 0,17, 0.00,60.00,Monday
141,38909669.32543481
190,0.0
2,9, 1, 9, 0,18, 0.00,60.00,Monday
141,40236091.39574245
190,0.0
2,9, 1, 9, 0,19, 0.00,60.00,Monday
141,40018618.39351692
190,0.0
2,9, 1, 9, 0,20, 0.00,60.00,Monday
141,37908573.322855435
190,0.0
2,9, 1, 9, 0,21, 0.00,60.00,Monday
141,35785732.90744777
190,0.0
2,9, 1, 9, 0,22, 0.00,60.00,Monday
141,34446647.17957377
190,0.0
2,9, 1, 9, 0,23, 0.00,60.00,Monday
141,34101571.69866408
190,0.0
2,9, 1, 9, 0,24, 0.00,60.00,Monday
141,34080785.07516728
190,0.0
2,10, 1,10, 0, 1, 0.00,60.00,Tuesday
141,34461838.360921495
190,0.0
2,10, 1,10, 0, 2, 0.00,60.00,Tuesday
141,34645615.57353291
190,0.0
2,10, 1,10, 0, 3, 0.00,60.00,Tuesday
141,34510504.69020456
190,0.0
2,10, 1,10, 0, 4, 0.00,60.00,Tuesday
141,34946605.92944364
190,0.0
2,10, 1,10, 0, 5, 0.00,60.00,Tuesday
141,34997267.275244765
190,0.0
2,10, 1,10, 0, 6, 0.00,60.00,Tuesday
141,34911555.837763466
190,0.0
2,10, 1,10, 0, 7, 0.00,60.00,Tuesday
141,34865434.32603356
190,0.0
2,10, 1,10, 0, 8, 0.00,60.00,Tuesday
141,34539984.07376347
190,0.0
2,10, 1,10, 0, 9, 0.00,60.00,Tuesday
141,34141979.63402489
190,0.0
2,10, 1,10, 0,10, 0.00,60.00,Tuesday
141,33647024.992636316
190,0.0
2,10, 1,10, 0,11, 0.00,60.00,Tuesday
141,32966487.659588695
190,0.0
2,10, 1,10, 0,12, 0.00,60.00,Tuesday
141,32203398.54299034
190,0.0
2,10, 1,10, 0,13, 0.00,60.00,Tuesday
141,32050794.87128986
190,0.0
2,10, 1,10, 0,14, 0.00,60.00,Tuesday
141,34678643.60841762
190,0.0
2,10, 1,10, 0,15, 0.00,60.00,Tuesday
141,36818157.58299656
190,0.0
2,10, 1,10, 0,16, 0.00,60.00,Tuesday
141,38173194.61255639
190,0.0
2,10, 1,10, 0,17, 0.00,60.00,Tuesday
141,39627270.056020565
190,0.0
2,10, 1,10, 0,18, 0.00,60.00,Tuesday
141,41549428.41894919
190,0.0
2,10, 1,10, 0,19, 0.00,60.00,Tuesday
141,42723858.62039045
190,0.0
2,10, 1,10, 0,20, 0.00,60.00,Tuesday
141,43763903.36231712
190,0.0
2,10, 1,10, 0,21, 0.00,60.00,Tuesday
141,45309776.8305202
190,0.0
2,10, 1,10, 0,22, 0.00,60.00,Tuesday
141,46448087.7821458
190,0.0
2,10, 1,10, 0,23, 0.00,60.00,Tuesday
141,46599254.198508255
190,0.0
2,10, 1,10, 0,24, 0.00,60.00,Tuesday
141,47899570.94598684
190,0.0
2,11, 1,11, 0, 1, 0.00,60.00,Wednesday
141,48595461.028723545
190,0.0
2,11, 1,11, 0, 2, 0.00,60.00,Wednesday
141,49277981.24960763
190,0.0
2,11, 1,11, 0, 3, 0.00,60.00,Wednesday
141,50213994.44859268
190,0.0
2,11, 1,11, 0, 4, 0.00,60.00,Wednesday
141,50123864.75318
190,0.0
2,11, 1,11, 0, 5, 0.00,60.00,Wednesday
141,50107297.11467109
190,0.0
2,11, 1,11, 0, 6, 0.00,60.00,Wednesday
141,50257467.1656892
190,0.0
2,11, 1,11, 0, 7, 0.00,60.00,Wednesday
141,50641205.73284136
190,0.0
2,11, 1,11, 0, 8, 0.00,60.00,Wednesday
141,50997388.93631806
190,0.0
2,11, 1,11, 0, 9, 0.00,60.00,Wednesday
141,51014706.788913935
190,0.0
2,11, 1,11, 0,10, 0.00,60.00,Wednesday
141,50796575.00184431
190,0.0
2,11, 1,11, 0,11, 0.00,60.00,Wednesday
141,50330547.05591881
190,0.0
2,11, 1,11, 0,12, 0.00,60.00,Wednesday
141,49473092.23889022
190,0.0
2,11, 1,11, 0,13, 0.00,60.00,Wednesday
141,48730392.69913459
190,0.0
2,11, 1,11, 0,14, 0.00,60.00,Wednesday
141,48270549.805883095
190,0.0
2,11, 1,11, 0,15, 0.00,60.00,Wednesday
141,47920341.95694936
190,0.0
2,11, 1,11, 0,16, 0.00,60.00,Wednesday
141,47592855.04782196
190,0.0
2,11, 1,11, 0,17, 0.00,60.00,Wednesday
141,46734440.95866511
190,0.0
2,11, 1,11, 0,18, 0.00,60.00,Wednesday
141,45920624.08859414
190,0.0
2,11, 1,11, 0,19, 0.00,60.00,Wednesday
141,45310766.2429265
190,0.0
2,11, 1,11, 0,20, 0.00,60.00,Wednesday
141,45058895.191658616
190,0.0
2,11, 1,11, 0,21, 0.00,60.00,Wednesday
141,44894330.96940699
190,0.0
2,11, 1,11, 0,22, 0.00,60.00,Wednesday
141,43836039.01782838
190,0.0
2,11, 1,11, 0,23, 0.00,60.00,Wednesday
141,43029201.09834699
190,0.0
2,11, 1,11, 0,24, 0.00,60.00,Wednesday
141,43036199.00162743
190,0.0
2,12, 1,12, 0, 1, 0.00,60.00,Thursday
141,43347291.1078254
190,0.0
2,12, 1,12, 0, 2, 0.00,60.00,Thursday
141,43355361.92442386
190,0.0
2,12, 1,12, 0, 3, 0.00,60.00,Thursday
141,43094269.51061602
190,0.0
2,12, 1,12, 0, 4, 0.00,60.00,Thursday
141,43096708.22048913
190,0.0
2,12, 1,12, 0, 5, 0.00,60.00,Thursday
141,43408341.572753474
190,0.0
2,12, 1,12, 0, 6, 0.00,60.00,Thursday
141,44179581.727232136
190,0.0
2,12, 1,12, 0, 7, 0.00,60.00,Thursday
141,44590516.78070709
190,0.0
2,12, 1,12, 0, 8, 0.00,60.00,Thursday
141,44681939.87535101
190,0.0
2,12, 1,12, 0, 9, 0.00,60.00,Thursday
141,44116737.70343198
190,0.0
2,12, 1,12, 0,10, 0.00,60.00,Thursday
141,42901967.8492445
190,0.0
2,12, 1,12, 0,11, 0.00,60.00,Thursday
141,41976182.07964346
190,0.0
2,12, 1,12, 0,12, 0.00,60.00,Thursday
141,41449504.8285234
190,0.0
2,12, 1,12, 0,13, 0.00,60.00,Thursday
141,40779027.894425094
190,0.0
2,12, 1,12, 0,14, 0.00,60.00,Thursday
141,40076144.27571837
190,0.0
2,12, 1,12, 0,15, 0.00,60.00,Thursday
141,40101068.483635075
190,0.0
2,12, 1,12, 0,16, 0.00,60.00,Thursday
141,40449690.34518898
190,0.0
2,12, 1,12, 0,17, 0.00,60.00,Thursday
141,41946591.78408897
190,0.0
2,12, 1,12, 0,18, 0.00,60.00,Thursday
141,42827668.30109699
190,0.0
2,12, 1,12, 0,19, 0.00,60.00,Thursday
141,42505673.31705573
190,0.0
2,12, 1,12, 0,20, 0.00,60.00,Thursday
141,41717914.39426351
190,0.0
2,12, 1,12, 0,21, 0.00,60.00,Thursday
141,41399164.15333743
190,0.0
2,12, 1,12, 0,22, 0.00,60.00,Thursday
141,40842723.82145397
190,0.0
2,12, 1,12, 0,23, 0.00,60.00,Thursday
141,40596417.576972514
190,0.0
2,12, 1,12, 0,24, 0.00,60.00,Thursday
141,40565227.87459173
190,0.0
2,13, 1,13, 0, 1, 0.00,60.00,Friday
141,40114676.81262288
190,0.0
2,13, 1,13, 0, 2, 0.00,60.00,Friday
141,39677447.448815525
190,0.0
2,13, 1,13, 0, 3, 0.00,60.00,Friday
141,39069225.652737394
190,0.0
2,13, 1,13, 0, 4, 0.00,60.00,Friday
141,38646924.70211837
190,0.0
2,13, 1,13, 0, 5, 0.00,60.00,Friday
141,38488852.80248761
190,0.0
2,13, 1,13, 0, 6, 0.00,60.00,Friday
141,38456033.12767258
190,0.0
2,13, 1,13, 0, 7, 0.00,60.00,Friday
141,38643960.07186712
190,0.0
2,13, 1,13, 0, 8, 0.00,60.00,Friday
141,38565256.02366532
190,0.0
2,13, 1,13, 0, 9, 0.00,60.00,Friday
141,38113338.413246736
190,0.0
2,13, 1,13, 0,10, 0.00,60.00,Friday
141,38944447.086040564
190,0.0
2,13, 1,13, 0,11, 0.00,60.00,Friday
141,39906307.983946875
190,0.0
2,13, 1,13, 0,12, 0.00,60.00,Friday
141,39944117.899016246
190,0.0
2,13, 1,13, 0,13, 0.00,60.00,Friday
141,40066062.81848593
190,0.0
2,13, 1,13, 0,14, 0.00,60.00,Friday
141,40721136.83282669
190,0.0
2,13, 1,13, 0,15, 0.00,60.00,Friday
141,41113489.91584773
190,0.0
2,13, 1,13, 0,16, 0.00,60.00,Friday
141,41055315.778739914
190,0.0
2,13, 1,13, 0,17, 0.00,60.00,Friday
141,40906980.66791724
190,0.0
2,13, 1,13, 0,18, 0.00,60.00,Friday
141,40846949.48925905
190,0.0
2,13, 1,13, 0,19, 0.00,60.00,Friday
141,41462157.305405356
190,0.0
2,13, 1,13, 0,20, 0.00,60.00,Friday
141,42532828.39899646
190,0.0
2,13, 1,13, 0,21, 0.00,60.00,Friday
141,43515135.92623845
190,0.0
2,13, 1,13, 0,22, 0.00,60.00,Friday
141,44213057.94353883
190,0.0
2,13, 1,13, 0,23, 0.00,60.00,Friday
141,44168331.53976159
190,0.0
2,13, 1,13, 0,24, 0.00,60.00,Friday
141,46866159.364365086
190,0.0
2,14, 1,14, 0, 1, 0.00,60.00,Saturday
141,48814804.84042347
190,0.0
2,14, 1,14, 0, 2, 0.00,60.00,Saturday
141,48343396.642612144
190,0.0
2,14, 1,14, 0, 3, 0.00,60.00,Saturday
141,48696270.7466436
190,0.0
2,14, 1,14, 0, 4, 0.00,60.00,Saturday
141,48608875.06481439
190,0.0
2,14, 1,14, 0, 5, 0.00,60.00,Saturday
141,48688836.58665806
190,0.0
2,14, 1,14, 0, 6, 0.00,60.00,Saturday
141,50644136.22728634
190,0.0
2,14, 1,14, 0, 7, 0.00,60.00,Saturday
141,52184107.10356073
190,0.0
2,14, 1,14, 0, 8, 0.00,60.00,Saturday
141,51971029.22634999
190,0.0
2,14, 1,14, 0, 9, 0.00,60.00,Saturday
141,52959600.939232275
190,0.0
2,14, 1,14, 0,10, 0.00,60.00,Saturday
141,54221109.90140405
190,0.0
2,14, 1,14, 0,11, 0.00,60.00,Saturday
141,54095278.30538628
190,0.0
2,14, 1,14, 0,12, 0.00,60.00,Saturday
141,53723612.174405046
190,0.0
2,14, 1,14, 0,13, 0.00,60.00,Saturday
141,52841433.255032815
190,0.0
2,14, 1,14, 0,14, 0.00,60.00,Saturday
141,50810774.45831698
190,0.0
2,14, 1,14, 0,15, 0.00,60.00,Saturday
141,50540510.89086972
190,0.0
2,14, 1,14, 0,16, 0.00,60.00,Saturday
141,50928850.18656089
190,0.0
2,14, 1,14, 0,17, 0.00,60.00,Saturday
141,51648703.02354906
190,0.0
2,14, 1,14, 0,18, 0.00,60.00,Saturday
141,53149792.37937209
190,0.0
2,14, 1,14, 0,19, 0.00,60.00,Saturday
141,53218607.900691286
190,0.0
2,14, 1,14, 0,20, 0.00,60.00,Saturday
141,53561757.4098216
190,0.0
2,14, 1,14, 0,21, 0.00,60.00,Saturday
141,53468202.70510264
190,0.0
2,14, 1,14, 0,22, 0.00,60.00,Saturday
141,53164053.89021705
190,0.0
2,14, 1,14, 0,23, 0.00,60.00,Saturday
141,53024641.499558575
190,0.0
2,14, 1,14, 0,24, 0.00,60.00,Saturday
141,53102836.19060334
190,0.0
2,15, 1,15, 0, 1, 0.00,60.00,Sunday
141,52368895.39983328
190,0.0
2,15, 1,15, 0, 2, 0.00,60.00,Sunday
141,50292737.74328309
190,0.0
2,15, 1,15, 0, 3, 0.00,60.00,Sunday
141,49319202.872977614
190,0.0
2,15, 1,15, 0, 4, 0.00,60.00,Sunday
141,48601488.629145525
190,0.0
2,15, 1,15, 0, 5, 0.00,60.00,Sunday
141,47157126.38324561
190,0.0
2,15, 1,15, 0, 6, 0.00,60.00,Sunday
141,45564575.16771419
190,0.0
2,15, 1,15, 0, 7, 0.00,60.00,Sunday
141,43929260.69012365
190,0.0
2,15, 1,15, 0, 8, 0.00,60.00,Sunday
141,42743256.3458489
190,0.0
2,15, 1,15, 0, 9, 0.00,60.00,Sunday
141,41750285.87857292
190,0.0
2,15, 1,15, 0,10, 0.00,60.00,Sunday
141,41360160.9649253
190,0.0
2,15, 1,15, 0,11, 0.00,60.00,Sunday
141,41835127.765613824
190,0.0
2,15, 1,15, 0,12, 0.00,60.00,Sunday
141,43535029.70424653
190,0.0
2,15, 1,15, 0,13, 0.00,60.00,Sunday
141,44700691.0167888
190,0.0
2,15, 1,15, 0,14, 0.00,60.00,Sunday
141,45022333.91022955
190,0.0
2,15, 1,15, 0,15, 0.00,60.00,Sunday
141,45038246.392490014
190,0.0
2,15, 1,15, 0,16, 0.00,60.00,Sunday
141,44382855.886331655
190,0.0
2,15, 1,15, 0,17, 0.00,60.00,Sunday
141,43942904.48626849
190,0.0
2,15, 1,15, 0,18, 0.00,60.00,Sunday
141,44006993.51798713
190,0.0
2,15, 1,15, 0,19, 0.00,60.00,Sunday
141,44282993.62277936
190,0.0
2,15, 1,15, 0,20, 0.00,60.00,Sunday
141,44655529.333784714
190,0.0
2,15, 1,15, 0,21, 0.00,60.00,Sunday
141,45550221.33927302
190,0.0
2,15, 1,15, 0,22, 0.00,60.00,Sunday
141,45970909.0721238
190,0.0
2,15, 1,15, 0,23, 0.00,60.00,Sunday
141,46070501.83501335
190,0.0
2,15, 1,15, 0,24, 0.00,60.00,Sunday
141,46398096.529049486
190,0.0
2,16, 1,16, 0, 1, 0.00,60.00,Monday
141,47382272.143044345
190,0.0
2,16, 1,16, 0, 2, 0.00,60.00,Monday
141,48336561.59946215
190,0.0
2,16, 1,16, 0, 3, 0.00,60.00,Monday
141,48947395.59165441
190,0.0
2,16, 1,16, 0, 4, 0.00,60.00,Monday
141,49418540.277585715
190,0.0
2,16, 1,16, 0, 5, 0.00,60.00,Monday
141,50021160.068658724
190,0.0
2,16, 1,16, 0, 6, 0.00,60.00,Monday
141,50523962.92342986
190,0.0
2,16, 1,16, 0, 7, 0.00,60.00,Monday
141,51455639.73592399
190,0.0
2,16, 1,16, 0, 8, 0.00,60.00,Monday
141,52322702.1808603
190,0.0
2,16, 1,16, 0, 9, 0.00,60.00,Monday
141,52713077.96545166
190,0.0
2,16, 1,16, 0,10, 0.00,60.00,Monday
141,52759997.96742253
190,0.0
2,16, 1,16, 0,11, 0.00,60.00,Monday
141,50964847.98387399
190,0.0
2,16, 1,16, 0,12, 0.00,60.00,Monday
141,49360144.60196043
190,0.0
2,16, 1,16, 0,13, 0.00,60.00,Monday
141,48044930.83317381
190,0.0
2,16, 1,16, 0,14, 0.00,60.00,Monday
141,47089170.71064322
190,0.0
2,16, 1,16, 0,15, 0.00,60.00,Monday
141,46899514.240691476
190,0.0
2,16, 1,16, 0,16, 0.00,60.00,Monday
141,47231523.89086747
190,0.0
2,16, 1,16, 0,17, 0.00,60.00,Monday
141,48149532.42913852
190,0.0
2,16, 1,16, 0,18, 0.00,60.00,Monday
141,49916537.7799225
190,0.0
2,16, 1,16, 0,19, 0.00,60.00,Monday
141,51757344.64806893
190,0.0
2,16, 1,16, 0,20, 0.00,60.00,Monday
141,52672659.1016396
190,0.0
2,16, 1,16, 0,21, 0.00,60.00,Monday
141,53381026.32541637
190,0.0
2,16, 1,16, 0,22, 0.00,60.00,Monday
141,54018743.47365381
190,0.0
2,16, 1,16, 0,23, 0.00,60.00,Monday
141,54994714.7708295
190,0.0
2,16, 1,16, 0,24, 0.00,60.00,Monday
141,55186983.82127434
190,0.0
2,17, 1,17, 0, 1, 0.00,60.00,Tuesday
141,55488258.662410095
190,0.0
2,17, 1,17, 0, 2, 0.00,60.00,Tuesday
141,56773735.498299874
190,0.0
2,17, 1,17, 0, 3, 0.00,60.00,Tuesday
141,57925458.04737275
190,0.0
2,17, 1,17, 0, 4, 0.00,60.00,Tuesday
141,58955533.90740319
190,0.0
2,17, 1,17, 0, 5, 0.00,60.00,Tuesday
141,60083700.00110959
190,0.0
2,17, 1,17, 0, 6, 0.00,60.00,Tuesday
141,61206334.35359524
190,0.0
2,17, 1,17, 0, 7, 0.00,60.00,Tuesday
141,61927387.4097887
190,0.0
2,17, 1,17, 0, 8, 0.00,60.00,Tuesday
141,62371619.01310989
190,0.0
2,17, 1,17, 0, 9, 0.00,60.00,Tuesday
141,62565457.848204136
190,0.0
2,17, 1,17, 0,10, 0.00,60.00,Tuesday
141,60595089.57554674
190,0.0
2,17, 1,17, 0,11, 0.00,60.00,Tuesday
141,57620723.5471758
190,0.0
2,17, 1,17, 0,12, 0.00,60.00,Tuesday
141,55029614.510707036
190,0.0
2,17, 1,17, 0,13, 0.00,60.00,Tuesday
141,53443036.19561976
190,0.0
2,17, 1,17, 0,14, 0.00,60.00,Tuesday
141,52912672.73063069
190,0.0
2,17, 1,17, 0,15, 0.00,60.00,Tuesday
141,53059479.66595957
190,0.0
2,17, 1,17, 0,16, 0.00,60.00,Tuesday
141,54082050.23582226
190,0.0
2,17, 1,17, 0,17, 0.00,60.00,Tuesday
141,54747584.43967037
190,0.0
2,17, 1,17, 0,18, 0.00,60.00,Tuesday
141,54374624.398514844
190,0.0
2,17, 1,17, 0,19, 0.00,60.00,Tuesday
141,53863506.22847389
190,0.0
2,17, 1,17, 0,20, 0.00,60.00,Tuesday
141,53854220.973938726
190,0.0
2,17, 1,17, 0,21, 0.00,60.00,Tuesday
141,54154508.57143385
190,0.0
2,17, 1,17, 0,22, 0.00,60.00,Tuesday
141,54157739.007627144
190,0.0
2,17, 1,17, 0,23, 0.00,60.00,Tuesday
141,54214100.49436685
190,0.0
2,17, 1,17, 0,24, 0.00,60.00,Tuesday
141,54902247.300711304
190,0.0
2,18, 1,18, 0, 1, 0.00,60.00,Wednesday
141,55404689.56906616
190,0.0
2,18, 1,18, 0, 2, 0.00,60.00,Wednesday
141,55868477.00548654
190,0.0
2,18, 1,18, 0, 3, 0.00,60.00,Wednesday
141,56193742.67366051
190,0.0
2,18, 1,18, 0, 4, 0.00,60.00,Wednesday
141,56391570.81062634
190,0.0
2,18, 1,18, 0, 5, 0.00,60.00,Wednesday
141,56664094.92710029
190,0.0
2,18, 1,18, 0, 6, 0.00,60.00,Wednesday
141,57027338.58252197
190,0.0
2,18, 1,18, 0, 7, 0.00,60.00,Wednesday
141,58224839.45301006
190,0.0
2,18, 1,18, 0, 8, 0.00,60.00,Wednesday
141,58651430.47804727
190,0.0
2,18, 1,18, 0, 9, 0.00,60.00,Wednesday
141,58906207.78999203
190,0.0
2,18, 1,18, 0,10, 0.00,60.00,Wednesday
141,58909025.34833909
190,0.0
2,18, 1,18, 0,11, 0.00,60.00,Wednesday
141,57945838.62207763
190,0.0
2,18, 1,18, 0,12, 0.00,60.00,Wednesday
141,57201487.40146175
190,0.0
2,18, 1,18, 0,13, 0.00,60.00,Wednesday
141,57565685.88880501
190,0.0
2,18, 1,18, 0,14, 0.00,60.00,Wednesday
141,58311268.89341589
190,0.0
2,18, 1,18, 0,15, 0.00,60.00,Wednesday
141,58669114.67588453
190,0.0
2,18, 1,18, 0,16, 0.00,60.00,Wednesday
141,59477891.90912763
190,0.0
2,18, 1,18, 0,17, 0.00,60.00,Wednesday
141,59840130.4473748
190,0.0
2,18, 1,18, 0,18, 0.00,60.00,Wednesday
141,59431843.0497258
190,0.0
2,18, 1,18, 0,19, 0.00,60.00,Wednesday
141,59228628.61792334
190,0.0
2,18, 1,18, 0,20, 0.00,60.00,Wednesday
141,59373162.35993543
190,0.0
2,18, 1,18, 0,21, 0.00,60.00,Wednesday
141,59485999.125912726
190,0.0
2,18, 1,18, 0,22, 0.00,60.00,Wednesday
141,59775251.18336118
190,0.0
2,18, 1,18, 0,23, 0.00,60.00,Wednesday
141,59982608.161660954
190,0.0
2,18, 1,18, 0,24, 0.00,60.00,Wednesday
141,60256209.0824085
190,0.0
2,19, 1,19, 0, 1, 0.00,60.00,Thursday
141,59923865.96523904
190,0.0
2,19, 1,19, 0, 2, 0.00,60.00,Thursday
141,60073483.90991953
190,0.0
2,19, 1,19, 0, 3, 0.00,60.00,Thursday
141,60972336.77943634
190,0.0