Program Version,EnergyPlus, Version 24.2.0-94a887817b, YMD=2025.04.24 13:21
1,5,Environment Title[],Latitude[deg],Longitude[deg],Time Zone[],Elevation[m]
2,8,Day of Simulation[],Month[],Day of Month[],DST Indicator[1=yes 0=no],Hour[],StartMinute[],EndMinute[],DayType
3,5,Cumulative Day of Simulation[],Month[],Day of Month[],DST Indicator[1=yes 0=no],DayType  ! When Daily Report Variables Requested
4,2,Cumulative Days of Simulation[],Month[]  ! When Monthly Report Variables Requested
5,1,Cumulative Days of Simulation[] ! When Run Period Report Variables Requested
6,1,Calendar Year of Simulation[] ! When Annual Report Variables Requested
141,1,ZONE_0599100000754092 IDEAL LOADS AIR SYSTEM,Zone Ideal Loads Supply Air Total Heating Energy [J] !Hourly
190,1,ZONE_0599100000754092 IDEAL LOADS AIR SYSTEM,Zone Ideal Loads Supply Air Total Cooling Energy [J] !Hourly
End of Data Dictionary
1,RUN PERIOD 1,  51.96,   4.45,   1.00,  -4.50
2,1, 1, 1, 0, 1, 0.00,60.00,Sunday
141,36441676.20615516
190,0.0
2,1, 1, 1, 0, 2, 0.00,60.00,Sunday
141,37753795.438679285
190,0.0
2,1, 1, 1, 0, 3, 0.00,60.00,Sunday
141,37737090.88375959
190,0.0
2,1, 1, 1, 0, 4, 0.00,60.00,Sunday
141,38703370.64892897
190,0.0
2,1, 1, 1, 0, 5, 0.00,60.00,Sunday
141,39359542.32866392
190,0.0
2,1, 1, 1, 0, 6, 0.00,60.00,Sunday
141,39427078.3077882
190,0.0
2,1, 1, 1, 0, 7, 0.00,60.00,Sunday
141,39538586.28827731
190,0.0
2,1, 1, 1, 0, 8, 0.00,60.00,Sunday
141,39443105.227339245
190,0.0
2,1, 1, 1, 0, 9, 0.00,60.00,Sunday
141,39357923.19523749
190,0.0
2,1, 1, 1, 0,10, 0.00,60.00,Sunday
141,39037160.22139434
190,0.0
2,1, 1, 1, 0,11, 0.00,60.00,Sunday
141,38221543.873847686
190,0.0
2,1, 1, 1, 0,12, 0.00,60.00,Sunday
141,36905612.400310315
190,0.0
2,1, 1, 1, 0,13, 0.00,60.00,Sunday
141,36257820.807565026
190,0.0
2,1, 1, 1, 0,14, 0.00,60.00,Sunday
141,35366874.4621139
190,0.0
2,1, 1, 1, 0,15, 0.00,60.00,Sunday
141,34749344.007062495
190,0.0
2,1, 1, 1, 0,16, 0.00,60.00,Sunday
141,35353448.96144898
190,0.0
2,1, 1, 1, 0,17, 0.00,60.00,Sunday
141,36115305.15044026
190,0.0
2,1, 1, 1, 0,18, 0.00,60.00,Sunday
141,36360358.28192647
190,0.0
2,1, 1, 1, 0,19, 0.00,60.00,Sunday
141,36576371.970647335
190,0.0
2,1, 1, 1, 0,20, 0.00,60.00,Sunday
141,36540183.29383818
190,0.0
2,1, 1, 1, 0,21, 0.00,60.00,Sunday
141,36418201.062112406
190,0.0
2,1, 1, 1, 0,22, 0.00,60.00,Sunday
141,36502995.421189904
190,0.0
2,1, 1, 1, 0,23, 0.00,60.00,Sunday
141,35589536.138815
190,0.0
2,1, 1, 1, 0,24, 0.00,60.00,Sunday
141,34910012.31847976
190,0.0
2,2, 1, 2, 0, 1, 0.00,60.00,Monday
141,35029905.36502124
190,0.0
2,2, 1, 2, 0, 2, 0.00,60.00,Monday
141,34106043.98243448
190,0.0
2,2, 1, 2, 0, 3, 0.00,60.00,Monday
141,33395976.233762242
190,0.0
2,2, 1, 2, 0, 4, 0.00,60.00,Monday
141,32677092.51709283
190,0.0
2,2, 1, 2, 0, 5, 0.00,60.00,Monday
141,31107564.342714302
190,0.0
2,2, 1, 2, 0, 6, 0.00,60.00,Monday
141,30362160.748433363
190,0.0
2,2, 1, 2, 0, 7, 0.00,60.00,Monday
141,29193548.557466693
190,0.0
2,2, 1, 2, 0, 8, 0.00,60.00,Monday
141,27771501.84255247
190,0.0
2,2, 1, 2, 0, 9, 0.00,60.00,Monday
141,28225362.274282522
190,0.0
2,2, 1, 2, 0,10, 0.00,60.00,Monday
141,29307234.686073612
190,0.0
2,2, 1, 2, 0,11, 0.00,60.00,Monday
141,30050291.60607087
190,0.0
2,2, 1, 2, 0,12, 0.00,60.00,Monday
141,29460589.130012836
190,0.0
2,2, 1, 2, 0,13, 0.00,60.00,Monday
141,29228428.186310627
190,0.0
2,2, 1, 2, 0,14, 0.00,60.00,Monday
141,29984695.92074642
190,0.0
2,2, 1, 2, 0,15, 0.00,60.00,Monday
141,30309188.69667695
190,0.0
2,2, 1, 2, 0,16, 0.00,60.00,Monday
141,31001825.786368217
190,0.0
2,2, 1, 2, 0,17, 0.00,60.00,Monday
141,31670829.895269487
190,0.0
2,2, 1, 2, 0,18, 0.00,60.00,Monday
141,31774512.052374978
190,0.0
2,2, 1, 2, 0,19, 0.00,60.00,Monday
141,32499463.246211186
190,0.0
2,2, 1, 2, 0,20, 0.00,60.00,Monday
141,33156742.479153775
190,0.0
2,2, 1, 2, 0,21, 0.00,60.00,Monday
141,33231779.90451786
190,0.0
2,2, 1, 2, 0,22, 0.00,60.00,Monday
141,33170378.51001761
190,0.0
2,2, 1, 2, 0,23, 0.00,60.00,Monday
141,33154766.422402155
190,0.0
2,2, 1, 2, 0,24, 0.00,60.00,Monday
141,33153850.75320597
190,0.0
2,3, 1, 3, 0, 1, 0.00,60.00,Tuesday
141,33177396.870984904
190,0.0
2,3, 1, 3, 0, 2, 0.00,60.00,Tuesday
141,33138094.11623003
190,0.0
2,3, 1, 3, 0, 3, 0.00,60.00,Tuesday
141,33078970.93722745
190,0.0
2,3, 1, 3, 0, 4, 0.00,60.00,Tuesday
141,33164430.94063985
190,0.0
2,3, 1, 3, 0, 5, 0.00,60.00,Tuesday
141,34013239.81003881
190,0.0
2,3, 1, 3, 0, 6, 0.00,60.00,Tuesday
141,34556262.33063158
190,0.0
2,3, 1, 3, 0, 7, 0.00,60.00,Tuesday
141,34807827.70736474
190,0.0
2,3, 1, 3, 0, 8, 0.00,60.00,Tuesday
141,34714347.3858518
190,0.0
2,3, 1, 3, 0, 9, 0.00,60.00,Tuesday
141,35413129.2018374
190,0.0
2,3, 1, 3, 0,10, 0.00,60.00,Tuesday
141,35744932.29002301
190,0.0
2,3, 1, 3, 0,11, 0.00,60.00,Tuesday
141,35823379.56630702
190,0.0
2,3, 1, 3, 0,12, 0.00,60.00,Tuesday
141,36032906.66581217
190,0.0
2,3, 1, 3, 0,13, 0.00,60.00,Tuesday
141,37122802.213794
190,0.0
2,3, 1, 3, 0,14, 0.00,60.00,Tuesday
141,37719780.552327074
190,0.0
2,3, 1, 3, 0,15, 0.00,60.00,Tuesday
141,37584827.29136023
190,0.0
2,3, 1, 3, 0,16, 0.00,60.00,Tuesday
141,37463638.05745927
190,0.0
2,3, 1, 3, 0,17, 0.00,60.00,Tuesday
141,37499071.185706645
190,0.0
2,3, 1, 3, 0,18, 0.00,60.00,Tuesday
141,37588185.24418293
190,0.0
2,3, 1, 3, 0,19, 0.00,60.00,Tuesday
141,37412403.43082635
190,0.0
2,3, 1, 3, 0,20, 0.00,60.00,Tuesday
141,36552425.22130377
190,0.0
2,3, 1, 3, 0,21, 0.00,60.00,Tuesday
141,34227969.8205647
190,0.0
2,3, 1, 3, 0,22, 0.00,60.00,Tuesday
141,32981072.73757316
190,0.0
2,3, 1, 3, 0,23, 0.00,60.00,Tuesday
141,33870656.39645713
190,0.0
2,3, 1, 3, 0,24, 0.00,60.00,Tuesday
141,35388230.337903045
190,0.0
2,4, 1, 4, 0, 1, 0.00,60.00,Wednesday
141,36144828.96743393
190,0.0
2,4, 1, 4, 0, 2, 0.00,60.00,Wednesday
141,36026430.619528875
190,0.0
2,4, 1, 4, 0, 3, 0.00,60.00,Wednesday
141,35798112.52295417
190,0.0
2,4, 1, 4, 0, 4, 0.00,60.00,Wednesday
141,36053672.70811597
190,0.0
2,4, 1, 4, 0, 5, 0.00,60.00,Wednesday
141,37060041.61623274
190,0.0
2,4, 1, 4, 0, 6, 0.00,60.00,Wednesday
141,36793578.318542086
190,0.0
2,4, 1, 4, 0, 7, 0.00,60.00,Wednesday
141,36742164.27486509
190,0.0
2,4, 1, 4, 0, 8, 0.00,60.00,Wednesday
141,37143742.34383644
190,0.0
2,4, 1, 4, 0, 9, 0.00,60.00,Wednesday
141,37433241.42338662
190,0.0
2,4, 1, 4, 0,10, 0.00,60.00,Wednesday
141,37667142.543956935
190,0.0
2,4, 1, 4, 0,11, 0.00,60.00,Wednesday
141,35842408.13776691
190,0.0
2,4, 1, 4, 0,12, 0.00,60.00,Wednesday
141,32754997.02587343
190,0.0
2,4, 1, 4, 0,13, 0.00,60.00,Wednesday
141,31925597.481931884
190,0.0
2,4, 1, 4, 0,14, 0.00,60.00,Wednesday
141,31815117.938254684
190,0.0
2,4, 1, 4, 0,15, 0.00,60.00,Wednesday
141,31521824.0610079
190,0.0
2,4, 1, 4, 0,16, 0.00,60.00,Wednesday
141,32793782.76623357
190,0.0
2,4, 1, 4, 0,17, 0.00,60.00,Wednesday
141,35069307.44609573
190,0.0
2,4, 1, 4, 0,18, 0.00,60.00,Wednesday
141,37040134.595098324
190,0.0
2,4, 1, 4, 0,19, 0.00,60.00,Wednesday
141,39040680.37808591
190,0.0
2,4, 1, 4, 0,20, 0.00,60.00,Wednesday
141,40084420.36321904
190,0.0
2,4, 1, 4, 0,21, 0.00,60.00,Wednesday
141,40545818.44808117
190,0.0
2,4, 1, 4, 0,22, 0.00,60.00,Wednesday
141,41494699.853168085
190,0.0
2,4, 1, 4, 0,23, 0.00,60.00,Wednesday
141,41041185.33218397
190,0.0
2,4, 1, 4, 0,24, 0.00,60.00,Wednesday
141,40292931.69078897
190,0.0
2,5, 1, 5, 0, 1, 0.00,60.00,Thursday
141,40512799.39864493
190,0.0
2,5, 1, 5, 0, 2, 0.00,60.00,Thursday
141,39983392.43831643
190,0.0
2,5, 1, 5, 0, 3, 0.00,60.00,Thursday
141,39474761.34547164
190,0.0
2,5, 1, 5, 0, 4, 0.00,60.00,Thursday
141,39543763.062590994
190,0.0
2,5, 1, 5, 0, 5, 0.00,60.00,Thursday
141,38985664.08232631
190,0.0
2,5, 1, 5, 0, 6, 0.00,60.00,Thursday
141,38750403.50662826
190,0.0
2,5, 1, 5, 0, 7, 0.00,60.00,Thursday
141,39113308.018515944
190,0.0
2,5, 1, 5, 0, 8, 0.00,60.00,Thursday
141,39437693.959080406
190,0.0
2,5, 1, 5, 0, 9, 0.00,60.00,Thursday
141,39561518.43699947
190,0.0
2,5, 1, 5, 0,10, 0.00,60.00,Thursday
141,40170057.746962674
190,0.0
2,5, 1, 5, 0,11, 0.00,60.00,Thursday
141,40022717.84798196
190,0.0
2,5, 1, 5, 0,12, 0.00,60.00,Thursday
141,38708177.25529257
190,0.0
2,5, 1, 5, 0,13, 0.00,60.00,Thursday
141,38253912.65681596
190,0.0
2,5, 1, 5, 0,14, 0.00,60.00,Thursday
141,37313871.65131028
190,0.0
2,5, 1, 5, 0,15, 0.00,60.00,Thursday
141,36570265.5868789
190,0.0
2,5, 1, 5, 0,16, 0.00,60.00,Thursday
141,37197617.53555576
190,0.0
2,5, 1, 5, 0,17, 0.00,60.00,Thursday
141,37053691.5898
190,0.0
2,5, 1, 5, 0,18, 0.00,60.00,Thursday
141,36653277.123829514
190,0.0
2,5, 1, 5, 0,19, 0.00,60.00,Thursday
141,36892456.695778534
190,0.0
2,5, 1, 5, 0,20, 0.00,60.00,Thursday
141,36855680.98257902
190,0.0
2,5, 1, 5, 0,21, 0.00,60.00,Thursday
141,36724974.039350584
190,0.0
2,5, 1, 5, 0,22, 0.00,60.00,Thursday
141,36761986.79728273
190,0.0
2,5, 1, 5, 0,23, 0.00,60.00,Thursday
141,36971622.863331914
190,0.0
2,5, 1, 5, 0,24, 0.00,60.00,Thursday
141,37198854.35976637
190,0.0
2,6, 1, 6, 0, 1, 0.00,60.00,Friday
141,37351975.39589721
190,0.0
2,6, 1, 6, 0, 2, 0.00,60.00,Friday
141,37498254.08406365
190,0.0
2,6, 1, 6, 0, 3, 0.00,60.00,Friday
141,38387423.0966187
190,0.0
2,6, 1, 6, 0, 4, 0.00,60.00,Friday
141,39248195.175997734
190,0.0
2,6, 1, 6, 0, 5, 0.00,60.00,Friday
141,39700442.524519674
190,0.0
2,6, 1, 6, 0, 6, 0.00,60.00,Friday
141,40248661.010888755
190,0.0
2,6, 1, 6, 0, 7, 0.00,60.00,Friday
141,41054550.39466373
190,0.0
2,6, 1, 6, 0, 8, 0.00,60.00,Friday
141,41815460.84483026
190,0.0
2,6, 1, 6, 0, 9, 0.00,60.00,Friday
141,42730012.16169922
190,0.0
2,6, 1, 6, 0,10, 0.00,60.00,Friday
141,43272364.03542311
190,0.0
2,6, 1, 6, 0,11, 0.00,60.00,Friday
141,42664070.319865614
190,0.0
2,6, 1, 6, 0,12, 0.00,60.00,Friday
141,41713542.344943464
190,0.0
2,6, 1, 6, 0,13, 0.00,60.00,Friday
141,41262562.76061964
190,0.0
2,6, 1, 6, 0,14, 0.00,60.00,Friday
141,41080260.12129631
190,0.0
2,6, 1, 6, 0,15, 0.00,60.00,Friday
141,40825038.61823356
190,0.0
2,6, 1, 6, 0,16, 0.00,60.00,Friday
141,40230774.13219564
190,0.0
2,6, 1, 6, 0,17, 0.00,60.00,Friday
141,39616800.98115399
190,0.0
2,6, 1, 6, 0,18, 0.00,60.00,Friday
141,39325653.85896964
190,0.0
2,6, 1, 6, 0,19, 0.00,60.00,Friday
141,38985093.883018
190,0.0
2,6, 1, 6, 0,20, 0.00,60.00,Friday
141,38151897.62507984
190,0.0
2,6, 1, 6, 0,21, 0.00,60.00,Friday
141,36062236.61127651
190,0.0
2,6, 1, 6, 0,22, 0.00,60.00,Friday
141,33560505.960835844
190,0.0
2,6, 1, 6, 0,23, 0.00,60.00,Friday
141,32443983.55553884
190,0.0
2,6, 1, 6, 0,24, 0.00,60.00,Friday
141,32694089.102575384
190,0.0
2,7, 1, 7, 0, 1, 0.00,60.00,Saturday
141,34681352.38571882
190,0.0
2,7, 1, 7, 0, 2, 0.00,60.00,Saturday
141,36661725.36825874
190,0.0
2,7, 1, 7, 0, 3, 0.00,60.00,Saturday
141,36381295.21730679
190,0.0
2,7, 1, 7, 0, 4, 0.00,60.00,Saturday
141,36539539.00560326
190,0.0
2,7, 1, 7, 0, 5, 0.00,60.00,Saturday
141,37889514.232813396
190,0.0
2,7, 1, 7, 0, 6, 0.00,60.00,Saturday
141,38944114.01067039
190,0.0
2,7, 1, 7, 0, 7, 0.00,60.00,Saturday
141,39559084.70981628
190,0.0
2,7, 1, 7, 0, 8, 0.00,60.00,Saturday
141,39857725.76453195
190,0.0
2,7, 1, 7, 0, 9, 0.00,60.00,Saturday
141,39092307.50697623
190,0.0
2,7, 1, 7, 0,10, 0.00,60.00,Saturday
141,38405240.027349904
190,0.0
2,7, 1, 7, 0,11, 0.00,60.00,Saturday
141,36406203.43744345
190,0.0
2,7, 1, 7, 0,12, 0.00,60.00,Saturday
141,34393870.31777754
190,0.0
2,7, 1, 7, 0,13, 0.00,60.00,Saturday
141,32937083.008060124
190,0.0
2,7, 1, 7, 0,14, 0.00,60.00,Saturday
141,32215495.06361726
190,0.0
2,7, 1, 7, 0,15, 0.00,60.00,Saturday
141,32565950.075371075
190,0.0
2,7, 1, 7, 0,16, 0.00,60.00,Saturday
141,33277895.666385517
190,0.0
2,7, 1, 7, 0,17, 0.00,60.00,Saturday
141,33880660.393110506
190,0.0
2,7, 1, 7, 0,18, 0.00,60.00,Saturday
141,34895552.20974083
190,0.0
2,7, 1, 7, 0,19, 0.00,60.00,Saturday
141,35841312.52984141
190,0.0
2,7, 1, 7, 0,20, 0.00,60.00,Saturday
141,36746446.025699675
190,0.0
2,7, 1, 7, 0,21, 0.00,60.00,Saturday
141,37388895.294146955
190,0.0
2,7, 1, 7, 0,22, 0.00,60.00,Saturday
141,37418253.56140441
190,0.0
2,7, 1, 7, 0,23, 0.00,60.00,Saturday
141,37525430.97049531
190,0.0
2,7, 1, 7, 0,24, 0.00,60.00,Saturday
141,37453892.89690509
190,0.0
2,8, 1, 8, 0, 1, 0.00,60.00,Sunday
141,36841770.54351509
190,0.0
2,8, 1, 8, 0, 2, 0.00,60.00,Sunday
141,36127014.56885501
190,0.0
2,8, 1, 8, 0, 3, 0.00,60.00,Sunday
141,35477437.36578522
190,0.0
2,8, 1, 8, 0, 4, 0.00,60.00,Sunday
141,34558397.5301284
190,0.0
2,8, 1, 8, 0, 5, 0.00,60.00,Sunday
141,33446739.564479217
190,0.0
2,8, 1, 8, 0, 6, 0.00,60.00,Sunday
141,32610032.261779815
190,0.0
2,8, 1, 8, 0, 7, 0.00,60.00,Sunday
141,31970348.93073427
190,0.0
2,8, 1, 8, 0, 8, 0.00,60.00,Sunday
141,31422515.939175505
190,0.0
2,8, 1, 8, 0, 9, 0.00,60.00,Sunday
141,30852616.686594762
190,0.0
2,8, 1, 8, 0,10, 0.00,60.00,Sunday
141,30666904.13279572
190,0.0
2,8, 1, 8, 0,11, 0.00,60.00,Sunday
141,30525744.57004198
190,0.0
2,8, 1, 8, 0,12, 0.00,60.00,Sunday
141,30638786.41655921
190,0.0
2,8, 1, 8, 0,13, 0.00,60.00,Sunday
141,30535398.467245817
190,0.0
2,8, 1, 8, 0,14, 0.00,60.00,Sunday
141,30670234.017485686
190,0.0
2,8, 1, 8, 0,15, 0.00,60.00,Sunday
141,31893579.258066393
190,0.0
2,8, 1, 8, 0,16, 0.00,60.00,Sunday
141,32775402.100541525
190,0.0
2,8, 1, 8, 0,17, 0.00,60.00,Sunday
141,32820190.414673652
190,0.0
2,8, 1, 8, 0,18, 0.00,60.00,Sunday
141,33209037.042784117
190,0.0
2,8, 1, 8, 0,19, 0.00,60.00,Sunday
141,32995295.459524974
190,0.0
2,8, 1, 8, 0,20, 0.00,60.00,Sunday
141,32253316.40064437
190,0.0
2,8, 1, 8, 0,21, 0.00,60.00,Sunday
141,31717811.58193192
190,0.0
2,8, 1, 8, 0,22, 0.00,60.00,Sunday
141,31863425.59396235
190,0.0
2,8, 1, 8, 0,23, 0.00,60.00,Sunday
141,31999517.275132496
190,0.0
2,8, 1, 8, 0,24, 0.00,60.00,Sunday
141,32431957.76122216
190,0.0
2,9, 1, 9, 0, 1, 0.00,60.00,Monday
141,32510439.57777439
190,0.0
2,9, 1, 9, 0, 2, 0.00,60.00,Monday
141,32555596.016956523
190,0.0
2,9, 1, 9, 0, 3, 0.00,60.00,Monday
141,32444032.24944124
190,0.0
2,9, 1, 9, 0, 4, 0.00,60.00,Monday
141,32170592.682122283
190,0.0
2,9, 1, 9, 0, 5, 0.00,60.00,Monday
141,31563273.144182563
190,0.0
2,9, 1, 9, 0, 6, 0.00,60.00,Monday
141,30949411.356100034
190,0.0
2,9, 1, 9, 0, 7, 0.00,60.00,Monday
141,30506335.9930586
190,0.0
2,9, 1, 9, 0, 8, 0.00,60.00,Monday
141,30266089.0875891
190,0.0
2,9, 1, 9, 0, 9, 0.00,60.00,Monday
141,29609163.193969376
190,0.0
2,9, 1, 9, 0,10, 0.00,60.00,Monday
141,28012466.181748312
190,0.0
2,9, 1, 9, 0,11, 0.00,60.00,Monday
141,26653065.870102007
190,0.0
2,9, 1, 9, 0,12, 0.00,60.00,Monday
141,25902945.09404887
190,0.0
2,9, 1, 9, 0,13, 0.00,60.00,Monday
141,25285567.716924187
190,0.0
2,9, 1, 9, 0,14, 0.00,60.00,Monday
141,24838715.82928917
190,0.0
2,9, 1, 9, 0,15, 0.00,60.00,Monday
141,24690242.58041486
190,0.0
2,9, 1, 9, 0,16, 0.00,60.00,Monday
141,25019869.42299849
190,0.0
2,9, 1, 9, 0,17, 0.00,60.00,Monday
141,26113228.40801998
190,0.0
2,9, 1, 9, 0,18, 0.00,60.00,Monday
141,27144775.463423632
190,0.0
2,9, 1, 9, 0,19, 0.00,60.00,Monday
141,27068387.5474439
190,0.0
2,9, 1, 9, 0,20, 0.00,60.00,Monday
141,25641519.842685707
190,0.0
2,9, 1, 9, 0,21, 0.00,60.00,Monday
141,24198649.67957737
190,0.0
2,9, 1, 9, 0,22, 0.00,60.00,Monday
141,23314702.91535752
190,0.0
2,9, 1, 9, 0,23, 0.00,60.00,Monday
141,23151459.651888583
190,0.0
2,9, 1, 9, 0,24, 0.00,60.00,Monday
141,23244305.387271807
190,0.0
2,10, 1,10, 0, 1, 0.00,60.00,Tuesday
141,23644427.26448145
190,0.0
2,10, 1,10, 0, 2, 0.00,60.00,Tuesday
141,23919497.685163226
190,0.0
2,10, 1,10, 0, 3, 0.00,60.00,Tuesday
141,23972371.887015354
190,0.0
2,10, 1,10, 0, 4, 0.00,60.00,Tuesday
141,24422744.351237457
190,0.0
2,10, 1,10, 0, 5, 0.00,60.00,Tuesday
141,24594083.48992327
190,0.0
2,10, 1,10, 0, 6, 0.00,60.00,Tuesday
141,24656782.71849066
190,0.0
2,10, 1,10, 0, 7, 0.00,60.00,Tuesday
141,24730265.874378026
190,0.0
2,10, 1,10, 0, 8, 0.00,60.00,Tuesday
141,24589833.503489945
190,0.0
2,10, 1,10, 0, 9, 0.00,60.00,Tuesday
141,24382210.188936125
190,0.0
2,10, 1,10, 0,10, 0.00,60.00,Tuesday
141,24093376.304991722
190,0.0
2,10, 1,10, 0,11, 0.00,60.00,Tuesday
141,23663060.170150086
190,0.0
2,10, 1,10, 0,12, 0.00,60.00,Tuesday
141,23167659.67397306
190,0.0
2,10, 1,10, 0,13, 0.00,60.00,Tuesday
141,23099802.74809599
190,0.0
2,10, 1,10, 0,14, 0.00,60.00,Tuesday
141,24983839.80979154
190,0.0
2,10, 1,10, 0,15, 0.00,60.00,Tuesday
141,26508956.406241998
190,0.0
2,10, 1,10, 0,16, 0.00,60.00,Tuesday
141,27452464.74940717
190,0.0
2,10, 1,10, 0,17, 0.00,60.00,Tuesday
141,28421793.41684297
190,0.0
2,10, 1,10, 0,18, 0.00,60.00,Tuesday
141,29673362.046410248
190,0.0
2,10, 1,10, 0,19, 0.00,60.00,Tuesday
141,30336799.179474
190,0.0
2,10, 1,10, 0,20, 0.00,60.00,Tuesday
141,30832873.027577408
190,0.0
2,10, 1,10, 0,21, 0.00,60.00,Tuesday
141,31614525.305951554
190,0.0
2,10, 1,10, 0,22, 0.00,60.00,Tuesday
141,32057648.983811088
190,0.0
2,10, 1,10, 0,23, 0.00,60.00,Tuesday
141,31773029.418782122
190,0.0
2,10, 1,10, 0,24, 0.00,60.00,Tuesday
141,32277078.76638997
190,0.0
2,11, 1,11, 0, 1, 0.00,60.00,Wednesday
141,32349771.871278025
190,0.0
2,11, 1,11, 0, 2, 0.00,60.00,Wednesday
141,32419485.614957698
190,0.0
2,11, 1,11, 0, 3, 0.00,60.00,Wednesday
141,32689346.04296825
190,0.0
2,11, 1,11, 0, 4, 0.00,60.00,Wednesday
141,32282907.204270955
190,0.0
2,11, 1,11, 0, 5, 0.00,60.00,Wednesday
141,31987767.46835769
190,0.0
2,11, 1,11, 0, 6, 0.00,60.00,Wednesday
141,31868343.10481989
190,0.0
2,11, 1,11, 0, 7, 0.00,60.00,Wednesday
141,31964739.17919627
190,0.0
2,11, 1,11, 0, 8, 0.00,60.00,Wednesday
141,32085201.26779203
190,0.0
2,11, 1,11, 0, 9, 0.00,60.00,Wednesday
141,32001039.14064068
190,0.0
2,11, 1,11, 0,10, 0.00,60.00,Wednesday
141,31776852.92126581
190,0.0
2,11, 1,11, 0,11, 0.00,60.00,Wednesday
141,31399971.84376177
190,0.0
2,11, 1,11, 0,12, 0.00,60.00,Wednesday
141,30783084.925303444
190,0.0
2,11, 1,11, 0,13, 0.00,60.00,Wednesday
141,30309393.550094433
190,0.0
2,11, 1,11, 0,14, 0.00,60.00,Wednesday
141,30113261.43003498
190,0.0
2,11, 1,11, 0,15, 0.00,60.00,Wednesday
141,30068708.816528484
190,0.0
2,11, 1,11, 0,16, 0.00,60.00,Wednesday
141,30094387.837357037
190,0.0
2,11, 1,11, 0,17, 0.00,60.00,Wednesday
141,29766916.862010352
190,0.0
2,11, 1,11, 0,18, 0.00,60.00,Wednesday
141,29453037.78397939
190,0.0
2,11, 1,11, 0,19, 0.00,60.00,Wednesday
141,29237353.141155
190,0.0
2,11, 1,11, 0,20, 0.00,60.00,Wednesday
141,29219152.901188903
190,0.0
2,11, 1,11, 0,21, 0.00,60.00,Wednesday
141,29213984.327500574
190,0.0
2,11, 1,11, 0,22, 0.00,60.00,Wednesday
141,28544292.77278095
190,0.0
2,11, 1,11, 0,23, 0.00,60.00,Wednesday
141,28027406.88616234
190,0.0
2,11, 1,11, 0,24, 0.00,60.00,Wednesday
141,28069447.793352116
190,0.0
2,12, 1,12, 0, 1, 0.00,60.00,Thursday
141,28320778.295567792
190,0.0
2,12, 1,12, 0, 2, 0.00,60.00,Thursday
141,28358869.70575786
190,0.0
2,12, 1,12, 0, 3, 0.00,60.00,Thursday
141,28206371.15619509
190,0.0
2,12, 1,12, 0, 4, 0.00,60.00,Thursday
141,28235110.723444015
190,0.0
2,12, 1,12, 0, 5, 0.00,60.00,Thursday
141,28476696.51150291
190,0.0
2,12, 1,12, 0, 6, 0.00,60.00,Thursday
141,29038393.75680928
190,0.0
2,12, 1,12, 0, 7, 0.00,60.00,Thursday
141,29344836.795172714
190,0.0
2,12, 1,12, 0, 8, 0.00,60.00,Thursday
141,29424415.47423436
190,0.0
2,12, 1,12, 0, 9, 0.00,60.00,Thursday
141,29039078.22937429
190,0.0
2,12, 1,12, 0,10, 0.00,60.00,Thursday
141,28193985.59601326
190,0.0
2,12, 1,12, 0,11, 0.00,60.00,Thursday
141,27550764.42594415
190,0.0
2,12, 1,12, 0,12, 0.00,60.00,Thursday
141,27184176.80886102
190,0.0
2,12, 1,12, 0,13, 0.00,60.00,Thursday
141,26702165.469919
190,0.0
2,12, 1,12, 0,14, 0.00,60.00,Thursday
141,26181293.97664279
190,0.0
2,12, 1,12, 0,15, 0.00,60.00,Thursday
141,26163624.78541478
190,0.0
2,12, 1,12, 0,16, 0.00,60.00,Thursday
141,26373541.671371393
190,0.0
2,12, 1,12, 0,17, 0.00,60.00,Thursday
141,27396893.42527458
190,0.0
2,12, 1,12, 0,18, 0.00,60.00,Thursday
141,27994700.011998918
190,0.0
2,12, 1,12, 0,19, 0.00,60.00,Thursday
141,27751272.784758665
190,0.0
2,12, 1,12, 0,20, 0.00,60.00,Thursday
141,27182486.81650434
190,0.0
2,12, 1,12, 0,21, 0.00,60.00,Thursday
141,26949152.979702454
190,0.0
2,12, 1,12, 0,22, 0.00,60.00,Thursday
141,26563636.513202794
190,0.0
2,12, 1,12, 0,23, 0.00,60.00,Thursday
141,26417995.575443115
190,0.0
2,12, 1,12, 0,24, 0.00,60.00,Thursday
141,26444466.58732848
190,0.0
2,13, 1,13, 0, 1, 0.00,60.00,Friday
141,26193296.261279665
190,0.0
2,13, 1,13, 0, 2, 0.00,60.00,Friday
141,25963679.834698875
190,0.0
2,13, 1,13, 0, 3, 0.00,60.00,Friday
141,25621299.211498834
190,0.0
2,13, 1,13, 0, 4, 0.00,60.00,Friday
141,25414167.638812754
190,0.0
2,13, 1,13, 0, 5, 0.00,60.00,Friday
141,25395576.3903249
190,0.0
2,13, 1,13, 0, 6, 0.00,60.00,Friday
141,25464998.997187782
190,0.0
2,13, 1,13, 0, 7, 0.00,60.00,Friday
141,25680385.356955785
190,0.0
2,13, 1,13, 0, 8, 0.00,60.00,Friday
141,25695462.682396464
190,0.0
2,13, 1,13, 0, 9, 0.00,60.00,Friday
141,25441140.63487017
190,0.0
2,13, 1,13, 0,10, 0.00,60.00,Friday
141,26079710.6338254
190,0.0
2,13, 1,13, 0,11, 0.00,60.00,Friday
141,26794076.878565125
190,0.0
2,13, 1,13, 0,12, 0.00,60.00,Friday
141,26839496.020816047
190,0.0
2,13, 1,13, 0,13, 0.00,60.00,Friday
141,26922798.992894515
190,0.0
2,13, 1,13, 0,14, 0.00,60.00,Friday
141,27358912.47531461
190,0.0
2,13, 1,13, 0,15, 0.00,60.00,Friday
141,27591278.08587752
190,0.0
2,13, 1,13, 0,16, 0.00,60.00,Friday
141,27491433.120533437
190,0.0
2,13, 1,13, 0,17, 0.00,60.00,Friday
141,27326443.783861876
190,0.0
2,13, 1,13, 0,18, 0.00,60.00,Friday
141,27240847.412316877
190,0.0
2,13, 1,13, 0,19, 0.00,60.00,Friday
141,27648422.574140266
190,0.0
2,13, 1,13, 0,20, 0.00,60.00,Friday
141,28382784.64163246
190,0.0
2,13, 1,13, 0,21, 0.00,60.00,Friday
141,29038402.936998453
190,0.0
2,13, 1,13, 0,22, 0.00,60.00,Friday
141,29449657.653238997
190,0.0
2,13, 1,13, 0,23, 0.00,60.00,Friday
141,29286779.453703444
190,0.0
2,13, 1,13, 0,24, 0.00,60.00,Friday
141,31015715.776759516
190,0.0
2,14, 1,14, 0, 1, 0.00,60.00,Saturday
141,32203299.198731393
190,0.0
2,14, 1,14, 0, 2, 0.00,60.00,Saturday
141,31697932.958423648
190,0.0
2,14, 1,14, 0, 3, 0.00,60.00,Saturday
141,31792606.28998538
190,0.0
2,14, 1,14, 0, 4, 0.00,60.00,Saturday
141,31599007.234916095
190,0.0
2,14, 1,14, 0, 5, 0.00,60.00,Saturday
141,31540015.407856878
190,0.0
2,14, 1,14, 0, 6, 0.00,60.00,Saturday
141,32799350.162898917
190,0.0
2,14, 1,14, 0, 7, 0.00,60.00,Saturday
141,33741960.61415742
190,0.0
2,14, 1,14, 0, 8, 0.00,60.00,Saturday
141,33418985.140189655
190,0.0
2,14, 1,14, 0, 9, 0.00,60.00,Saturday
141,33910700.05149613
190,0.0
2,14, 1,14, 0,10, 0.00,60.00,Saturday
141,34578113.6072146
190,0.0
2,14, 1,14, 0,11, 0.00,60.00,Saturday
141,34281205.45991451
190,0.0
2,14, 1,14, 0,12, 0.00,60.00,Saturday
141,33846226.904710636
190,0.0
2,14, 1,14, 0,13, 0.00,60.00,Saturday
141,33102443.680664368
190,0.0
2,14, 1,14, 0,14, 0.00,60.00,Saturday
141,31610029.990211803
190,0.0
2,14, 1,14, 0,15, 0.00,60.00,Saturday
141,31419282.271059107
190,0.0
2,14, 1,14, 0,16, 0.00,60.00,Saturday
141,31754713.026940532
190,0.0
2,14, 1,14, 0,17, 0.00,60.00,Saturday
141,32354486.724697765
190,0.0
2,14, 1,14, 0,18, 0.00,60.00,Saturday
141,33463830.54404135
190,0.0
2,14, 1,14, 0,19, 0.00,60.00,Saturday
141,33490129.56667818
190,0.0
2,14, 1,14, 0,20, 0.00,60.00,Saturday
141,33639659.14186736
190,0.0
2,14, 1,14, 0,21, 0.00,60.00,Saturday
141,33432713.02771154
190,0.0
2,14, 1,14, 0,22, 0.00,60.00,Saturday
141,33049986.675422132
190,0.0
2,14, 1,14, 0,23, 0.00,60.00,Saturday
141,32774281.959343478
190,0.0
2,14, 1,14, 0,24, 0.00,60.00,Saturday
141,32658779.374787018
190,0.0
2,15, 1,15, 0, 1, 0.00,60.00,Sunday
141,31991581.013514668
190,0.0
2,15, 1,15, 0, 2, 0.00,60.00,Sunday
141,30409564.200225856
190,0.0
2,15, 1,15, 0, 3, 0.00,60.00,Sunday
141,29644658.377572633
190,0.0
2,15, 1,15, 0, 4, 0.00,60.00,Sunday
141,29111841.095059074
190,0.0
2,15, 1,15, 0, 5, 0.00,60.00,Sunday
141,28125323.88009643
190,0.0
2,15, 1,15, 0, 6, 0.00,60.00,Sunday
141,27088229.90917612
190,0.0
2,15, 1,15, 0, 7, 0.00,60.00,Sunday
141,26067115.78288864
190,0.0
2,15, 1,15, 0, 8, 0.00,60.00,Sunday
141,25401110.249367066
190,0.0
2,15, 1,15, 0, 9, 0.00,60.00,Sunday
141,24903623.225866318
190,0.0
2,15, 1,15, 0,10, 0.00,60.00,Sunday
141,24858093.691748787
190,0.0
2,15, 1,15, 0,11, 0.00,60.00,Sunday
141,25443301.69342234
190,0.0
2,15, 1,15, 0,12, 0.00,60.00,Sunday
141,26905638.705541268
190,0.0
2,15, 1,15, 0,13, 0.00,60.00,Sunday
141,27994158.087432873
190,0.0
2,15, 1,15, 0,14, 0.00,60.00,Sunday
141,28461439.768460505
190,0.0
2,15, 1,15, 0,15, 0.00,60.00,Sunday
141,28663014.29471092
190,0.0
2,15, 1,15, 0,16, 0.00,60.00,Sunday
141,28338036.293021284
190,0.0
2,15, 1,15, 0,17, 0.00,60.00,Sunday
141,28120087.424840737
190,0.0
2,15, 1,15, 0,18, 0.00,60.00,Sunday
141,28230922.738371976
190,0.0
2,15, 1,15, 0,19, 0.00,60.00,Sunday
141,28487311.65588874
190,0.0
2,15, 1,15, 0,20, 0.00,60.00,Sunday
141,28809954.18294735
190,0.0
2,15, 1,15, 0,21, 0.00,60.00,Sunday
141,29478096.99983447
190,0.0
2,15, 1,15, 0,22, 0.00,60.00,Sunday
141,29779473.106493723
190,0.0
2,15, 1,15, 0,23, 0.00,60.00,Sunday
141,29817896.897307854
190,0.0
2,15, 1,15, 0,24, 0.00,60.00,Sunday
141,29983716.837532416
190,0.0
2,16, 1,16, 0, 1, 0.00,60.00,Monday
141,30584816.411180183
190,0.0
2,16, 1,16, 0, 2, 0.00,60.00,Monday
141,31145826.23160099
190,0.0
2,16, 1,16, 0, 3, 0.00,60.00,Monday
141,31457248.496799115
190,0.0
2,16, 1,16, 0, 4, 0.00,60.00,Monday
141,31681886.83375001
190,0.0
2,16, 1,16, 0, 5, 0.00,60.00,Monday
141,32021902.836750776
190,0.0
2,16, 1,16, 0, 6, 0.00,60.00,Monday
141,32312835.636135403
190,0.0
2,16, 1,16, 0, 7, 0.00,60.00,Monday
141,32919582.322796643
190,0.0
2,16, 1,16, 0, 8, 0.00,60.00,Monday
141,33489296.462187037
190,0.0
2,16, 1,16, 0, 9, 0.00,60.00,Monday
141,33727358.731921844
190,0.0
2,16, 1,16, 0,10, 0.00,60.00,Monday
141,33723122.52715809
190,0.0
2,16, 1,16, 0,11, 0.00,60.00,Monday
141,32422695.51756127
190,0.0
2,16, 1,16, 0,12, 0.00,60.00,Monday
141,31274972.680957623
190,0.0
2,16, 1,16, 0,13, 0.00,60.00,Monday
141,30385395.854532752
190,0.0
2,16, 1,16, 0,14, 0.00,60.00,Monday
141,29800261.077304594
190,0.0
2,16, 1,16, 0,15, 0.00,60.00,Monday
141,29746927.39467974
190,0.0
2,16, 1,16, 0,16, 0.00,60.00,Monday
141,30021263.27428633
190,0.0
2,16, 1,16, 0,17, 0.00,60.00,Monday
141,30672552.612755615
190,0.0
2,16, 1,16, 0,18, 0.00,60.00,Monday
141,31904405.345127918
190,0.0
2,16, 1,16, 0,19, 0.00,60.00,Monday
141,33196310.843110632
190,0.0
2,16, 1,16, 0,20, 0.00,60.00,Monday
141,33851230.455220535
190,0.0
2,16, 1,16, 0,21, 0.00,60.00,Monday
141,34366809.81900526
190,0.0
2,16, 1,16, 0,22, 0.00,60.00,Monday
141,34833190.35184984
190,0.0
2,16, 1,16, 0,23, 0.00,60.00,Monday
141,35537535.32256375
190,0.0
2,16, 1,16, 0,24, 0.00,60.00,Monday
141,35688565.74558635
190,0.0
2,17, 1,17, 0, 1, 0.00,60.00,Tuesday
141,35892325.14459208
190,0.0
2,17, 1,17, 0, 2, 0.00,60.00,Tuesday
141,36733792.26405916
190,0.0
2,17, 1,17, 0, 3, 0.00,60.00,Tuesday
141,37428645.80630362
190,0.0
2,17, 1,17, 0, 4, 0.00,60.00,Tuesday
141,38015325.15159555
190,0.0
2,17, 1,17, 0, 5, 0.00,60.00,Tuesday
141,38670745.15755702
190,0.0
2,17, 1,17, 0, 6, 0.00,60.00,Tuesday
141,39328947.251485124
190,0.0
2,17, 1,17, 0, 7, 0.00,60.00,Tuesday
141,39710340.06039176
190,0.0
2,17, 1,17, 0, 8, 0.00,60.00,Tuesday
141,39899617.027532585
190,0.0
2,17, 1,17, 0, 9, 0.00,60.00,Tuesday
141,39913138.63197294
190,0.0
2,17, 1,17, 0,10, 0.00,60.00,Tuesday
141,38404980.96776585
190,0.0
2,17, 1,17, 0,11, 0.00,60.00,Tuesday
141,36196595.423321374
190,0.0
2,17, 1,17, 0,12, 0.00,60.00,Tuesday
141,34294173.23509557
190,0.0
2,17, 1,17, 0,13, 0.00,60.00,Tuesday
141,33189312.526314653
190,0.0
2,17, 1,17, 0,14, 0.00,60.00,Tuesday
141,32961311.350980345
190,0.0
2,17, 1,17, 0,15, 0.00,60.00,Tuesday
141,33348118.155968867
190,0.0
2,17, 1,17, 0,16, 0.00,60.00,Tuesday
141,34454085.40400528
190,0.0
2,17, 1,17, 0,17, 0.00,60.00,Tuesday
141,35349872.606172025
190,0.0
2,17, 1,17, 0,18, 0.00,60.00,Tuesday
141,35492909.87325572
190,0.0
2,17, 1,17, 0,19, 0.00,60.00,Tuesday
141,35466420.36024449
190,0.0
2,17, 1,17, 0,20, 0.00,60.00,Tuesday
141,35698012.85477593
190,0.0
2,17, 1,17, 0,21, 0.00,60.00,Tuesday
141,36055854.15510692
190,0.0
2,17, 1,17, 0,22, 0.00,60.00,Tuesday
141,36131415.083463185
190,0.0
2,17, 1,17, 0,23, 0.00,60.00,Tuesday
141,36187917.39312638
190,0.0
2,17, 1,17, 0,24, 0.00,60.00,Tuesday
141,36646563.45673293
190,0.0
2,18, 1,18, 0, 1, 0.00,60.00,Wednesday
141,36931229.08984887
190,0.0
2,18, 1,18, 0, 2, 0.00,60.00,Wednesday
141,37129119.40027134
190,0.0
2,18, 1,18, 0, 3, 0.00,60.00,Wednesday
141,37177630.73135988
190,0.0
2,18, 1,18, 0, 4, 0.00,60.00,Wednesday
141,37119751.69666176
190,0.0
2,18, 1,18, 0, 5, 0.00,60.00,Wednesday
141,37127735.82058161
190,0.0
2,18, 1,18, 0, 6, 0.00,60.00,Wednesday
141,37225013.86645914
190,0.0
2,18, 1,18, 0, 7, 0.00,60.00,Wednesday
141,37936231.12097066
190,0.0
2,18, 1,18, 0, 8, 0.00,60.00,Wednesday
141,38130629.02316885
190,0.0
2,18, 1,18, 0, 9, 0.00,60.00,Wednesday
141,38224414.98539413
190,0.0
2,18, 1,18, 0,10, 0.00,60.00,Wednesday
141,38156830.35295368
190,0.0
2,18, 1,18, 0,11, 0.00,60.00,Wednesday
141,37424033.83755137
190,0.0
2,18, 1,18, 0,12, 0.00,60.00,Wednesday
141,36862401.987957545
190,0.0
2,18, 1,18, 0,13, 0.00,60.00,Wednesday
141,37104824.44526334
190,0.0
2,18, 1,18, 0,14, 0.00,60.00,Wednesday
141,37645526.68424116
190,0.0
2,18, 1,18, 0,15, 0.00,60.00,Wednesday
141,37941852.267624
190,0.0
2,18, 1,18, 0,16, 0.00,60.00,Wednesday
141,38573564.73562823
190,0.0
2,18, 1,18, 0,17, 0.00,60.00,Wednesday
141,38895986.33532218
190,0.0
2,18, 1,18, 0,18, 0.00,60.00,Wednesday
141,38666948.12831901
190,0.0
2,18, 1,18, 0,19, 0.00,60.00,Wednesday
141,38559142.069417424
190,0.0
2,18, 1,18, 0,20, 0.00,60.00,Wednesday
141,38675174.67255453
190,0.0
2,18, 1,18, 0,21, 0.00,60.00,Wednesday
141,38758451.10704731
190,0.0
2,18, 1,18, 0,22, 0.00,60.00,Wednesday
141,38963532.183758445
190,0.0
2,18, 1,18, 0,23, 0.00,60.00,Wednesday
141,39112818.14398609
190,0.0
2,18, 1,18, 0,24, 0.00,60.00,Wednesday
141,39311747.05028482
190,0.0
2,19, 1,19, 0, 1, 0.00,60.00,Thursday
141,39087447.131939866
190,0.0
2,19, 1,19, 0, 2, 0.00,60.00,Thursday
141,39203999.22381851