Program Version,EnergyPlus, Version 24.2.0-94a887817b, YMD=2025.04.24 13:19
1,5,Environment Title[],Latitude[deg],Longitude[deg],Time Zone[],Elevation[m]
2,8,Day of Simulation[],Month[],Day of Month[],DST Indicator[1=yes 0=no],Hour[],StartMinute[],EndMinute[],DayType
3,5,Cumulative Day of Simulation[],Month[],Day of Month[],DST Indicator[1=yes 0=no],DayType  ! When Daily Report Variables Requested
4,2,Cumulative Days of Simulation[],Month[]  ! When Monthly Report Variables Requested
5,1,Cumulative Days of Simulation[] ! When Run Period Report Variables Requested
6,1,Calendar Year of Simulation[] ! When Annual Report Variables Requested
141,1,ZONE_0599100000136202 IDEAL LOADS AIR SYSTEM,Zone Ideal Loads Supply Air Total Heating Energy [J] !Hourly
190,1,ZONE_0599100000136202 IDEAL LOADS AIR SYSTEM,Zone Ideal Loads Supply Air Total Cooling Energy [J] !Hourly
End of Data Dictionary
1,RUN PERIOD 1,  51.96,   4.45,   1.00,  -4.50
2,1, 1, 1, 0, 1, 0.00,60.00,Sunday
141,76029694.23687804
190,0.0
2,1, 1, 1, 0, 2, 0.00,60.00,Sunday
141,78086602.26583657
190,0.0
2,1, 1, 1, 0, 3, 0.00,60.00,Sunday
141,78126046.8826178
190,0.0
2,1, 1, 1, 0, 4, 0.00,60.00,Sunday
141,79679435.29391901
190,0.0
2,1, 1, 1, 0, 5, 0.00,60.00,Sunday
141,80814389.47007279
190,0.0
2,1, 1, 1, 0, 6, 0.00,60.00,Sunday
141,81112014.5934964
190,0.0
2,1, 1, 1, 0, 7, 0.00,60.00,Sunday
141,81524179.79392816
190,0.0
2,1, 1, 1, 0, 8, 0.00,60.00,Sunday
141,81665384.48759149
190,0.0
2,1, 1, 1, 0, 9, 0.00,60.00,Sunday
141,81853607.22048073
190,0.0
2,1, 1, 1, 0,10, 0.00,60.00,Sunday
141,81705982.64236355
190,0.0
2,1, 1, 1, 0,11, 0.00,60.00,Sunday
141,80814807.2662949
190,0.0
2,1, 1, 1, 0,12, 0.00,60.00,Sunday
141,79125458.3019649
190,0.0
2,1, 1, 1, 0,13, 0.00,60.00,Sunday
141,78325993.21657327
190,0.0
2,1, 1, 1, 0,14, 0.00,60.00,Sunday
141,76959993.41796984
190,0.0
2,1, 1, 1, 0,15, 0.00,60.00,Sunday
141,75762109.87148093
190,0.0
2,1, 1, 1, 0,16, 0.00,60.00,Sunday
141,76193085.55436529
190,0.0
2,1, 1, 1, 0,17, 0.00,60.00,Sunday
141,76747427.75319624
190,0.0
2,1, 1, 1, 0,18, 0.00,60.00,Sunday
141,76534853.58515215
190,0.0
2,1, 1, 1, 0,19, 0.00,60.00,Sunday
141,76389708.26338263
190,0.0
2,1, 1, 1, 0,20, 0.00,60.00,Sunday
141,76013340.53509484
190,0.0
2,1, 1, 1, 0,21, 0.00,60.00,Sunday
141,75647737.54541937
190,0.0
2,1, 1, 1, 0,22, 0.00,60.00,Sunday
141,75705703.33000961
190,0.0
2,1, 1, 1, 0,23, 0.00,60.00,Sunday
141,74330327.46547012
190,0.0
2,1, 1, 1, 0,24, 0.00,60.00,Sunday
141,73357400.49939129
190,0.0
2,2, 1, 2, 0, 1, 0.00,60.00,Monday
141,73614674.16215383
190,0.0
2,2, 1, 2, 0, 2, 0.00,60.00,Monday
141,72285357.53349732
190,0.0
2,2, 1, 2, 0, 3, 0.00,60.00,Monday
141,71256865.55057849
190,0.0
2,2, 1, 2, 0, 4, 0.00,60.00,Monday
141,70179320.35725987
190,0.0
2,2, 1, 2, 0, 5, 0.00,60.00,Monday
141,67762384.43673187
190,0.0
2,2, 1, 2, 0, 6, 0.00,60.00,Monday
141,66530881.90049735
190,0.0
2,2, 1, 2, 0, 7, 0.00,60.00,Monday
141,64586949.21658491
190,0.0
2,2, 1, 2, 0, 8, 0.00,60.00,Monday
141,62177886.47678993
190,0.0
2,2, 1, 2, 0, 9, 0.00,60.00,Monday
141,62526201.6790075
190,0.0
2,2, 1, 2, 0,10, 0.00,60.00,Monday
141,63749559.08859853
190,0.0
2,2, 1, 2, 0,11, 0.00,60.00,Monday
141,64398718.73578864
190,0.0
2,2, 1, 2, 0,12, 0.00,60.00,Monday
141,63023221.40958333
190,0.0
2,2, 1, 2, 0,13, 0.00,60.00,Monday
141,62298292.159042664
190,0.0
2,2, 1, 2, 0,14, 0.00,60.00,Monday
141,63241116.0731214
190,0.0
2,2, 1, 2, 0,15, 0.00,60.00,Monday
141,63672067.429584295
190,0.0
2,2, 1, 2, 0,16, 0.00,60.00,Monday
141,64760404.94943035
190,0.0
2,2, 1, 2, 0,17, 0.00,60.00,Monday
141,65898330.65720763
190,0.0
2,2, 1, 2, 0,18, 0.00,60.00,Monday
141,66257631.51416649
190,0.0
2,2, 1, 2, 0,19, 0.00,60.00,Monday
141,67624433.77785824
190,0.0
2,2, 1, 2, 0,20, 0.00,60.00,Monday
141,68945620.0660606
190,0.0
2,2, 1, 2, 0,21, 0.00,60.00,Monday
141,69427975.57801753
190,0.0
2,2, 1, 2, 0,22, 0.00,60.00,Monday
141,69742202.22846058
190,0.0
2,2, 1, 2, 0,23, 0.00,60.00,Monday
141,70160033.56948273
190,0.0
2,2, 1, 2, 0,24, 0.00,60.00,Monday
141,70612580.64496611
190,0.0
2,3, 1, 3, 0, 1, 0.00,60.00,Tuesday
141,71090417.2718001
190,0.0
2,3, 1, 3, 0, 2, 0.00,60.00,Tuesday
141,71449612.43559568
190,0.0
2,3, 1, 3, 0, 3, 0.00,60.00,Tuesday
141,71738029.12412608
190,0.0
2,3, 1, 3, 0, 4, 0.00,60.00,Tuesday
141,72162321.45703734
190,0.0
2,3, 1, 3, 0, 5, 0.00,60.00,Tuesday
141,73636692.36731274
190,0.0
2,3, 1, 3, 0, 6, 0.00,60.00,Tuesday
141,74548139.41219701
190,0.0
2,3, 1, 3, 0, 7, 0.00,60.00,Tuesday
141,74942851.01657663
190,0.0
2,3, 1, 3, 0, 8, 0.00,60.00,Tuesday
141,74765112.41038321
190,0.0
2,3, 1, 3, 0, 9, 0.00,60.00,Tuesday
141,75761005.4738444
190,0.0
2,3, 1, 3, 0,10, 0.00,60.00,Tuesday
141,76189023.45767942
190,0.0
2,3, 1, 3, 0,11, 0.00,60.00,Tuesday
141,76227802.20564492
190,0.0
2,3, 1, 3, 0,12, 0.00,60.00,Tuesday
141,76473169.05619366
190,0.0
2,3, 1, 3, 0,13, 0.00,60.00,Tuesday
141,78099756.04694976
190,0.0
2,3, 1, 3, 0,14, 0.00,60.00,Tuesday
141,79033887.83885247
190,0.0
2,3, 1, 3, 0,15, 0.00,60.00,Tuesday
141,78865141.19959514
190,0.0
2,3, 1, 3, 0,16, 0.00,60.00,Tuesday
141,78691519.7538774
190,0.0
2,3, 1, 3, 0,17, 0.00,60.00,Tuesday
141,78723881.55544947
190,0.0
2,3, 1, 3, 0,18, 0.00,60.00,Tuesday
141,78808751.23409045
190,0.0
2,3, 1, 3, 0,19, 0.00,60.00,Tuesday
141,78469951.52065818
190,0.0
2,3, 1, 3, 0,20, 0.00,60.00,Tuesday
141,77091189.78263439
190,0.0
2,3, 1, 3, 0,21, 0.00,60.00,Tuesday
141,73531458.68044022
190,0.0
2,3, 1, 3, 0,22, 0.00,60.00,Tuesday
141,71703387.63452592
190,0.0
2,3, 1, 3, 0,23, 0.00,60.00,Tuesday
141,73197067.85648021
190,0.0
2,3, 1, 3, 0,24, 0.00,60.00,Tuesday
141,75651347.79313727
190,0.0
2,4, 1, 4, 0, 1, 0.00,60.00,Wednesday
141,76930622.9025475
190,0.0
2,4, 1, 4, 0, 2, 0.00,60.00,Wednesday
141,76912377.82330695
190,0.0
2,4, 1, 4, 0, 3, 0.00,60.00,Wednesday
141,76799371.78478777
190,0.0
2,4, 1, 4, 0, 4, 0.00,60.00,Wednesday
141,77451417.09295374
190,0.0
2,4, 1, 4, 0, 5, 0.00,60.00,Wednesday
141,79215685.76886865
190,0.0
2,4, 1, 4, 0, 6, 0.00,60.00,Wednesday
141,79001335.66496715
190,0.0
2,4, 1, 4, 0, 7, 0.00,60.00,Wednesday
141,79057690.54779078
190,0.0
2,4, 1, 4, 0, 8, 0.00,60.00,Wednesday
141,79756194.4166444
190,0.0
2,4, 1, 4, 0, 9, 0.00,60.00,Wednesday
141,80253677.93502007
190,0.0
2,4, 1, 4, 0,10, 0.00,60.00,Wednesday
141,80654980.34569122
190,0.0
2,4, 1, 4, 0,11, 0.00,60.00,Wednesday
141,77969309.1729523
190,0.0
2,4, 1, 4, 0,12, 0.00,60.00,Wednesday
141,73448698.99593192
190,0.0
2,4, 1, 4, 0,13, 0.00,60.00,Wednesday
141,72396610.73361228
190,0.0
2,4, 1, 4, 0,14, 0.00,60.00,Wednesday
141,72385236.3582752
190,0.0
2,4, 1, 4, 0,15, 0.00,60.00,Wednesday
141,71980768.67010134
190,0.0
2,4, 1, 4, 0,16, 0.00,60.00,Wednesday
141,73836684.11072506
190,0.0
2,4, 1, 4, 0,17, 0.00,60.00,Wednesday
141,77142482.92160113
190,0.0
2,4, 1, 4, 0,18, 0.00,60.00,Wednesday
141,79964863.1925821
190,0.0
2,4, 1, 4, 0,19, 0.00,60.00,Wednesday
141,82870588.65619713
190,0.0
2,4, 1, 4, 0,20, 0.00,60.00,Wednesday
141,84428218.55206124
190,0.0
2,4, 1, 4, 0,21, 0.00,60.00,Wednesday
141,85250502.63565972
190,0.0
2,4, 1, 4, 0,22, 0.00,60.00,Wednesday
141,86968713.66510531
190,0.0
2,4, 1, 4, 0,23, 0.00,60.00,Wednesday
141,86699924.35746846
190,0.0
2,4, 1, 4, 0,24, 0.00,60.00,Wednesday
141,86091376.11064507
190,0.0
2,5, 1, 5, 0, 1, 0.00,60.00,Thursday
141,87007561.82105972
190,0.0
2,5, 1, 5, 0, 2, 0.00,60.00,Thursday
141,86785387.40868758
190,0.0
2,5, 1, 5, 0, 3, 0.00,60.00,Thursday
141,86538244.2201572
190,0.0
2,5, 1, 5, 0, 4, 0.00,60.00,Thursday
141,87074566.98581398
190,0.0
2,5, 1, 5, 0, 5, 0.00,60.00,Thursday
141,86549113.88383451
190,0.0
2,5, 1, 5, 0, 6, 0.00,60.00,Thursday
141,86399602.81372534
190,0.0
2,5, 1, 5, 0, 7, 0.00,60.00,Thursday
141,87051746.98107351
190,0.0
2,5, 1, 5, 0, 8, 0.00,60.00,Thursday
141,87556815.49798208
190,0.0
2,5, 1, 5, 0, 9, 0.00,60.00,Thursday
141,87686094.96719657
190,0.0
2,5, 1, 5, 0,10, 0.00,60.00,Thursday
141,88499362.4794862
190,0.0
2,5, 1, 5, 0,11, 0.00,60.00,Thursday
141,88139855.08298585
190,0.0
2,5, 1, 5, 0,12, 0.00,60.00,Thursday
141,85973906.20440644
190,0.0
2,5, 1, 5, 0,13, 0.00,60.00,Thursday
141,85021700.51617794
190,0.0
2,5, 1, 5, 0,14, 0.00,60.00,Thursday
141,83197848.95780501
190,0.0
2,5, 1, 5, 0,15, 0.00,60.00,Thursday
141,81524943.90591241
190,0.0
2,5, 1, 5, 0,16, 0.00,60.00,Thursday
141,81811414.27355364
190,0.0
2,5, 1, 5, 0,17, 0.00,60.00,Thursday
141,80874659.712659
190,0.0
2,5, 1, 5, 0,18, 0.00,60.00,Thursday
141,79570788.69578984
190,0.0
2,5, 1, 5, 0,19, 0.00,60.00,Thursday
141,79312763.67440602
190,0.0
2,5, 1, 5, 0,20, 0.00,60.00,Thursday
141,78730665.15407911
190,0.0
2,5, 1, 5, 0,21, 0.00,60.00,Thursday
141,78092999.96729638
190,0.0
2,5, 1, 5, 0,22, 0.00,60.00,Thursday
141,77784992.81864063
190,0.0
2,5, 1, 5, 0,23, 0.00,60.00,Thursday
141,77801888.48506153
190,0.0
2,5, 1, 5, 0,24, 0.00,60.00,Thursday
141,77892641.2846494
190,0.0
2,6, 1, 6, 0, 1, 0.00,60.00,Friday
141,77904139.19515431
190,0.0
2,6, 1, 6, 0, 2, 0.00,60.00,Friday
141,77927834.67892174
190,0.0
2,6, 1, 6, 0, 3, 0.00,60.00,Friday
141,79095175.65901785
190,0.0
2,6, 1, 6, 0, 4, 0.00,60.00,Friday
141,80241139.20989482
190,0.0
2,6, 1, 6, 0, 5, 0.00,60.00,Friday
141,80798220.80303086
190,0.0
2,6, 1, 6, 0, 6, 0.00,60.00,Friday
141,81541100.78999422
190,0.0
2,6, 1, 6, 0, 7, 0.00,60.00,Friday
141,82725850.9911605
190,0.0
2,6, 1, 6, 0, 8, 0.00,60.00,Friday
141,83901913.26111342
190,0.0
2,6, 1, 6, 0, 9, 0.00,60.00,Friday
141,85376158.41727819
190,0.0
2,6, 1, 6, 0,10, 0.00,60.00,Friday
141,86360174.05790095
190,0.0
2,6, 1, 6, 0,11, 0.00,60.00,Friday
141,85677992.78766514
190,0.0
2,6, 1, 6, 0,12, 0.00,60.00,Friday
141,84525257.59486108
190,0.0
2,6, 1, 6, 0,13, 0.00,60.00,Friday
141,84100965.29708825
190,0.0
2,6, 1, 6, 0,14, 0.00,60.00,Friday
141,83971614.99833827
190,0.0
2,6, 1, 6, 0,15, 0.00,60.00,Friday
141,83565635.52170141
190,0.0
2,6, 1, 6, 0,16, 0.00,60.00,Friday
141,82484822.50075592
190,0.0
2,6, 1, 6, 0,17, 0.00,60.00,Friday
141,81281775.26454781
190,0.0
2,6, 1, 6, 0,18, 0.00,60.00,Friday
141,80576363.27280788
190,0.0
2,6, 1, 6, 0,19, 0.00,60.00,Friday
141,79876439.96299648
190,0.0
2,6, 1, 6, 0,20, 0.00,60.00,Friday
141,78566187.1414039
190,0.0
2,6, 1, 6, 0,21, 0.00,60.00,Friday
141,75518590.83753927
190,0.0
2,6, 1, 6, 0,22, 0.00,60.00,Friday
141,71937545.19346385
190,0.0
2,6, 1, 6, 0,23, 0.00,60.00,Friday
141,70439422.61576167
190,0.0
2,6, 1, 6, 0,24, 0.00,60.00,Friday
141,70931289.55344747
190,0.0
2,7, 1, 7, 0, 1, 0.00,60.00,Saturday
141,73958601.0072268
190,0.0
2,7, 1, 7, 0, 2, 0.00,60.00,Saturday
141,76903156.71111465
190,0.0
2,7, 1, 7, 0, 3, 0.00,60.00,Saturday
141,76396314.83982635
190,0.0
2,7, 1, 7, 0, 4, 0.00,60.00,Saturday
141,76563377.72597292
190,0.0
2,7, 1, 7, 0, 5, 0.00,60.00,Saturday
141,78561714.8065216
190,0.0
2,7, 1, 7, 0, 6, 0.00,60.00,Saturday
141,80140097.93515041
190,0.0
2,7, 1, 7, 0, 7, 0.00,60.00,Saturday
141,81083372.3947517
190,0.0
2,7, 1, 7, 0, 8, 0.00,60.00,Saturday
141,81591050.5917265
190,0.0
2,7, 1, 7, 0, 9, 0.00,60.00,Saturday
141,80543159.87647398
190,0.0
2,7, 1, 7, 0,10, 0.00,60.00,Saturday
141,79671203.17655258
190,0.0
2,7, 1, 7, 0,11, 0.00,60.00,Saturday
141,76854033.45098296
190,0.0
2,7, 1, 7, 0,12, 0.00,60.00,Saturday
141,73987517.22884706
190,0.0
2,7, 1, 7, 0,13, 0.00,60.00,Saturday
141,71802970.09349301
190,0.0
2,7, 1, 7, 0,14, 0.00,60.00,Saturday
141,70452064.97476208
190,0.0
2,7, 1, 7, 0,15, 0.00,60.00,Saturday
141,70400123.01222864
190,0.0
2,7, 1, 7, 0,16, 0.00,60.00,Saturday
141,70622374.71108948
190,0.0
2,7, 1, 7, 0,17, 0.00,60.00,Saturday
141,70538051.25874768
190,0.0
2,7, 1, 7, 0,18, 0.00,60.00,Saturday
141,71103104.49082737
190,0.0
2,7, 1, 7, 0,19, 0.00,60.00,Saturday
141,71725057.38271014
190,0.0
2,7, 1, 7, 0,20, 0.00,60.00,Saturday
141,72511433.0388544
190,0.0
2,7, 1, 7, 0,21, 0.00,60.00,Saturday
141,73129105.81829076
190,0.0
2,7, 1, 7, 0,22, 0.00,60.00,Saturday
141,73017895.66755417
190,0.0
2,7, 1, 7, 0,23, 0.00,60.00,Saturday
141,73188943.2004132
190,0.0
2,7, 1, 7, 0,24, 0.00,60.00,Saturday
141,73246513.80475387
190,0.0
2,8, 1, 8, 0, 1, 0.00,60.00,Sunday
141,72661668.17081274
190,0.0
2,8, 1, 8, 0, 2, 0.00,60.00,Sunday
141,72064353.69222414
190,0.0
2,8, 1, 8, 0, 3, 0.00,60.00,Sunday
141,71641130.6466892
190,0.0
2,8, 1, 8, 0, 4, 0.00,60.00,Sunday
141,70811313.7075956
190,0.0
2,8, 1, 8, 0, 5, 0.00,60.00,Sunday
141,69616586.68918395
190,0.0
2,8, 1, 8, 0, 6, 0.00,60.00,Sunday
141,68713778.94501564
190,0.0
2,8, 1, 8, 0, 7, 0.00,60.00,Sunday
141,67970946.93956499
190,0.0
2,8, 1, 8, 0, 8, 0.00,60.00,Sunday
141,67233918.40487906
190,0.0
2,8, 1, 8, 0, 9, 0.00,60.00,Sunday
141,66343802.66008067
190,0.0
2,8, 1, 8, 0,10, 0.00,60.00,Sunday
141,65934024.20178132
190,0.0
2,8, 1, 8, 0,11, 0.00,60.00,Sunday
141,65508690.79968028
190,0.0
2,8, 1, 8, 0,12, 0.00,60.00,Sunday
141,65402149.83792402
190,0.0
2,8, 1, 8, 0,13, 0.00,60.00,Sunday
141,64920667.50463581
190,0.0
2,8, 1, 8, 0,14, 0.00,60.00,Sunday
141,64780103.28626219
190,0.0
2,8, 1, 8, 0,15, 0.00,60.00,Sunday
141,66308649.582626484
190,0.0
2,8, 1, 8, 0,16, 0.00,60.00,Sunday
141,67366792.492361
190,0.0
2,8, 1, 8, 0,17, 0.00,60.00,Sunday
141,67226242.73814209
190,0.0
2,8, 1, 8, 0,18, 0.00,60.00,Sunday
141,67704750.11070108
190,0.0
2,8, 1, 8, 0,19, 0.00,60.00,Sunday
141,67375611.39699742
190,0.0
2,8, 1, 8, 0,20, 0.00,60.00,Sunday
141,66316303.40958808
190,0.0
2,8, 1, 8, 0,21, 0.00,60.00,Sunday
141,65607041.776936196
190,0.0
2,8, 1, 8, 0,22, 0.00,60.00,Sunday
141,65959962.13945736
190,0.0
2,8, 1, 8, 0,23, 0.00,60.00,Sunday
141,66309895.34383622
190,0.0
2,8, 1, 8, 0,24, 0.00,60.00,Sunday
141,67104479.82839887
190,0.0
2,9, 1, 9, 0, 1, 0.00,60.00,Monday
141,67360925.05123042
190,0.0
2,9, 1, 9, 0, 2, 0.00,60.00,Monday
141,67573122.41156927
190,0.0
2,9, 1, 9, 0, 3, 0.00,60.00,Monday
141,67559304.01709892
190,0.0
2,9, 1, 9, 0, 4, 0.00,60.00,Monday
141,67296560.22955765
190,0.0
2,9, 1, 9, 0, 5, 0.00,60.00,Monday
141,66500116.338002004
190,0.0
2,9, 1, 9, 0, 6, 0.00,60.00,Monday
141,65647081.36543615
190,0.0
2,9, 1, 9, 0, 7, 0.00,60.00,Monday
141,64997930.42174213
190,0.0
2,9, 1, 9, 0, 8, 0.00,60.00,Monday
141,64596591.8732933
190,0.0
2,9, 1, 9, 0, 9, 0.00,60.00,Monday
141,63509470.35914512
190,0.0
2,9, 1, 9, 0,10, 0.00,60.00,Monday
141,60962397.01082753
190,0.0
2,9, 1, 9, 0,11, 0.00,60.00,Monday
141,58764039.368237235
190,0.0
2,9, 1, 9, 0,12, 0.00,60.00,Monday
141,57464666.36040937
190,0.0
2,9, 1, 9, 0,13, 0.00,60.00,Monday
141,56302621.19262539
190,0.0
2,9, 1, 9, 0,14, 0.00,60.00,Monday
141,55316056.803318195
190,0.0
2,9, 1, 9, 0,15, 0.00,60.00,Monday
141,54716480.94225003
190,0.0
2,9, 1, 9, 0,16, 0.00,60.00,Monday
141,54816104.23639668
190,0.0
2,9, 1, 9, 0,17, 0.00,60.00,Monday
141,56091171.49160044
190,0.0
2,9, 1, 9, 0,18, 0.00,60.00,Monday
141,57323393.92459174
190,0.0
2,9, 1, 9, 0,19, 0.00,60.00,Monday
141,56943957.9219166
190,0.0
2,9, 1, 9, 0,20, 0.00,60.00,Monday
141,54576907.95141099
190,0.0
2,9, 1, 9, 0,21, 0.00,60.00,Monday
141,52204653.09267494
190,0.0
2,9, 1, 9, 0,22, 0.00,60.00,Monday
141,50654036.517643675
190,0.0
2,9, 1, 9, 0,23, 0.00,60.00,Monday
141,50129815.16304643
190,0.0
2,9, 1, 9, 0,24, 0.00,60.00,Monday
141,49910514.58563367
190,0.0
2,10, 1,10, 0, 1, 0.00,60.00,Tuesday
141,50081684.58898086
190,0.0
2,10, 1,10, 0, 2, 0.00,60.00,Tuesday
141,50022208.8023054
190,0.0
2,10, 1,10, 0, 3, 0.00,60.00,Tuesday
141,49619438.1104793
190,0.0
2,10, 1,10, 0, 4, 0.00,60.00,Tuesday
141,49830297.12288028
190,0.0
2,10, 1,10, 0, 5, 0.00,60.00,Tuesday
141,49641758.06533339
190,0.0
2,10, 1,10, 0, 6, 0.00,60.00,Tuesday
141,49325780.63295253
190,0.0
2,10, 1,10, 0, 7, 0.00,60.00,Tuesday
141,49075604.51541495
190,0.0
2,10, 1,10, 0, 8, 0.00,60.00,Tuesday
141,48551764.10937947
190,0.0
2,10, 1,10, 0, 9, 0.00,60.00,Tuesday
141,47970156.26335422
190,0.0
2,10, 1,10, 0,10, 0.00,60.00,Tuesday
141,47303462.303653546
190,0.0
2,10, 1,10, 0,11, 0.00,60.00,Tuesday
141,46454348.265155934
190,0.0
2,10, 1,10, 0,12, 0.00,60.00,Tuesday
141,45524955.53659204
190,0.0
2,10, 1,10, 0,13, 0.00,60.00,Tuesday
141,45245679.24297121
190,0.0
2,10, 1,10, 0,14, 0.00,60.00,Tuesday
141,47929189.32275517
190,0.0
2,10, 1,10, 0,15, 0.00,60.00,Tuesday
141,50110536.61335793
190,0.0
2,10, 1,10, 0,16, 0.00,60.00,Tuesday
141,51494205.75665496
190,0.0
2,10, 1,10, 0,17, 0.00,60.00,Tuesday
141,53041048.00732843
190,0.0
2,10, 1,10, 0,18, 0.00,60.00,Tuesday
141,55148991.83872595
190,0.0
2,10, 1,10, 0,19, 0.00,60.00,Tuesday
141,56546292.9371417
190,0.0
2,10, 1,10, 0,20, 0.00,60.00,Tuesday
141,57903914.3754396
190,0.0
2,10, 1,10, 0,21, 0.00,60.00,Tuesday
141,59900927.23628623
190,0.0
2,10, 1,10, 0,22, 0.00,60.00,Tuesday
141,61539687.78725148
190,0.0
2,10, 1,10, 0,23, 0.00,60.00,Tuesday
141,62178034.94305631
190,0.0
2,10, 1,10, 0,24, 0.00,60.00,Tuesday
141,64071720.83948959
190,0.0
2,11, 1,11, 0, 1, 0.00,60.00,Wednesday
141,65335835.674698725
190,0.0
2,11, 1,11, 0, 2, 0.00,60.00,Wednesday
141,66582529.12447642
190,0.0
2,11, 1,11, 0, 3, 0.00,60.00,Wednesday
141,68074826.07829164
190,0.0
2,11, 1,11, 0, 4, 0.00,60.00,Wednesday
141,68418203.05773823
190,0.0
2,11, 1,11, 0, 5, 0.00,60.00,Wednesday
141,68765239.54016227
190,0.0
2,11, 1,11, 0, 6, 0.00,60.00,Wednesday
141,69217652.57020724
190,0.0
2,11, 1,11, 0, 7, 0.00,60.00,Wednesday
141,69856384.7188067
190,0.0
2,11, 1,11, 0, 8, 0.00,60.00,Wednesday
141,70414053.96711005
190,0.0
2,11, 1,11, 0, 9, 0.00,60.00,Wednesday
141,70569009.4875953
190,0.0
2,11, 1,11, 0,10, 0.00,60.00,Wednesday
141,70445236.87953188
190,0.0
2,11, 1,11, 0,11, 0.00,60.00,Wednesday
141,70035919.3091713
190,0.0
2,11, 1,11, 0,12, 0.00,60.00,Wednesday
141,69183853.19879648
190,0.0
2,11, 1,11, 0,13, 0.00,60.00,Wednesday
141,68409660.40713593
190,0.0
2,11, 1,11, 0,14, 0.00,60.00,Wednesday
141,67870635.48579371
190,0.0
2,11, 1,11, 0,15, 0.00,60.00,Wednesday
141,67364009.4362244
190,0.0
2,11, 1,11, 0,16, 0.00,60.00,Wednesday
141,66796968.84273781
190,0.0
2,11, 1,11, 0,17, 0.00,60.00,Wednesday
141,65604767.61147592
190,0.0
2,11, 1,11, 0,18, 0.00,60.00,Wednesday
141,64448549.45574794
190,0.0
2,11, 1,11, 0,19, 0.00,60.00,Wednesday
141,63546350.94505008
190,0.0
2,11, 1,11, 0,20, 0.00,60.00,Wednesday
141,63085148.33735956
190,0.0
2,11, 1,11, 0,21, 0.00,60.00,Wednesday
141,62775800.80921981
190,0.0
2,11, 1,11, 0,22, 0.00,60.00,Wednesday
141,61557842.957806475
190,0.0
2,11, 1,11, 0,23, 0.00,60.00,Wednesday
141,60634796.68454539
190,0.0
2,11, 1,11, 0,24, 0.00,60.00,Wednesday
141,60591481.022043556
190,0.0
2,12, 1,12, 0, 1, 0.00,60.00,Thursday
141,60873110.0629081
190,0.0
2,12, 1,12, 0, 2, 0.00,60.00,Thursday
141,60827823.05270542
190,0.0
2,12, 1,12, 0, 3, 0.00,60.00,Thursday
141,60494706.00023755
190,0.0
2,12, 1,12, 0, 4, 0.00,60.00,Thursday
141,60446149.222184144
190,0.0
2,12, 1,12, 0, 5, 0.00,60.00,Thursday
141,60732082.51562585
190,0.0
2,12, 1,12, 0, 6, 0.00,60.00,Thursday
141,61510802.54770559
190,0.0
2,12, 1,12, 0, 7, 0.00,60.00,Thursday
141,61908085.42440133
190,0.0
2,12, 1,12, 0, 8, 0.00,60.00,Thursday
141,61968647.91142163
190,0.0
2,12, 1,12, 0, 9, 0.00,60.00,Thursday
141,61335686.43991546
190,0.0
2,12, 1,12, 0,10, 0.00,60.00,Thursday
141,60016624.128743045
190,0.0
2,12, 1,12, 0,11, 0.00,60.00,Thursday
141,59008017.97429559
190,0.0
2,12, 1,12, 0,12, 0.00,60.00,Thursday
141,58428569.96387487
190,0.0
2,12, 1,12, 0,13, 0.00,60.00,Thursday
141,57710999.186987326
190,0.0
2,12, 1,12, 0,14, 0.00,60.00,Thursday
141,56975585.10478611
190,0.0
2,12, 1,12, 0,15, 0.00,60.00,Thursday
141,57023022.35569125
190,0.0
2,12, 1,12, 0,16, 0.00,60.00,Thursday
141,57413090.577949755
190,0.0
2,12, 1,12, 0,17, 0.00,60.00,Thursday
141,59017059.16627851
190,0.0
2,12, 1,12, 0,18, 0.00,60.00,Thursday
141,59955394.91532841
190,0.0
2,12, 1,12, 0,19, 0.00,60.00,Thursday
141,59607284.13768457
190,0.0
2,12, 1,12, 0,20, 0.00,60.00,Thursday
141,58761745.69859921
190,0.0
2,12, 1,12, 0,21, 0.00,60.00,Thursday
141,58410041.26491274
190,0.0
2,12, 1,12, 0,22, 0.00,60.00,Thursday
141,57786272.38905193
190,0.0
2,12, 1,12, 0,23, 0.00,60.00,Thursday
141,57466013.33554936
190,0.0
2,12, 1,12, 0,24, 0.00,60.00,Thursday
141,57348877.86719575
190,0.0
2,13, 1,13, 0, 1, 0.00,60.00,Friday
141,56763526.5025111
190,0.0
2,13, 1,13, 0, 2, 0.00,60.00,Friday
141,56176963.323305264
190,0.0
2,13, 1,13, 0, 3, 0.00,60.00,Friday
141,55398019.44722043
190,0.0
2,13, 1,13, 0, 4, 0.00,60.00,Friday
141,54811545.8661807
190,0.0
2,13, 1,13, 0, 5, 0.00,60.00,Friday
141,54502730.6445252
190,0.0
2,13, 1,13, 0, 6, 0.00,60.00,Friday
141,54326297.41052478
190,0.0
2,13, 1,13, 0, 7, 0.00,60.00,Friday
141,54396119.92710316
190,0.0
2,13, 1,13, 0, 8, 0.00,60.00,Friday
141,54195969.36269374
190,0.0
2,13, 1,13, 0, 9, 0.00,60.00,Friday
141,53605527.44446365
190,0.0
2,13, 1,13, 0,10, 0.00,60.00,Friday
141,54392399.93259476
190,0.0
2,13, 1,13, 0,11, 0.00,60.00,Friday
141,55338024.549943775
190,0.0
2,13, 1,13, 0,12, 0.00,60.00,Friday
141,55322394.42631808
190,0.0
2,13, 1,13, 0,13, 0.00,60.00,Friday
141,55425628.46377992
190,0.0
2,13, 1,13, 0,14, 0.00,60.00,Friday
141,56124450.26404412
190,0.0
2,13, 1,13, 0,15, 0.00,60.00,Friday
141,56569837.375280395
190,0.0
2,13, 1,13, 0,16, 0.00,60.00,Friday
141,56556532.59821001
190,0.0
2,13, 1,13, 0,17, 0.00,60.00,Friday
141,56448310.72520409
190,0.0
2,13, 1,13, 0,18, 0.00,60.00,Friday
141,56407877.49387244
190,0.0
2,13, 1,13, 0,19, 0.00,60.00,Friday
141,57061427.81334224
190,0.0
2,13, 1,13, 0,20, 0.00,60.00,Friday
141,58195963.58943069
190,0.0
2,13, 1,13, 0,21, 0.00,60.00,Friday
141,59264159.0257093
190,0.0
2,13, 1,13, 0,22, 0.00,60.00,Friday
141,60094465.97315076
190,0.0
2,13, 1,13, 0,23, 0.00,60.00,Friday
141,60205795.38137501
190,0.0
2,13, 1,13, 0,24, 0.00,60.00,Friday
141,63289042.11160723
190,0.0
2,14, 1,14, 0, 1, 0.00,60.00,Saturday
141,65595942.90389977
190,0.0
2,14, 1,14, 0, 2, 0.00,60.00,Saturday
141,65316928.873953104
190,0.0
2,14, 1,14, 0, 3, 0.00,60.00,Saturday
141,65893758.52326919
190,0.0
2,14, 1,14, 0, 4, 0.00,60.00,Saturday
141,65981420.51526143
190,0.0
2,14, 1,14, 0, 5, 0.00,60.00,Saturday
141,66230105.110368155
190,0.0
2,14, 1,14, 0, 6, 0.00,60.00,Saturday
141,68478934.4602732
190,0.0
2,14, 1,14, 0, 7, 0.00,60.00,Saturday
141,70317232.0348421
190,0.0
2,14, 1,14, 0, 8, 0.00,60.00,Saturday
141,70333192.29503644
190,0.0
2,14, 1,14, 0, 9, 0.00,60.00,Saturday
141,71670104.74228635
190,0.0
2,14, 1,14, 0,10, 0.00,60.00,Saturday
141,73321428.69422133
190,0.0
2,14, 1,14, 0,11, 0.00,60.00,Saturday
141,73484459.91546828
190,0.0
2,14, 1,14, 0,12, 0.00,60.00,Saturday
141,73347885.76165798
190,0.0
2,14, 1,14, 0,13, 0.00,60.00,Saturday
141,72614796.82869142
190,0.0
2,14, 1,14, 0,14, 0.00,60.00,Saturday
141,70591207.84266457
190,0.0
2,14, 1,14, 0,15, 0.00,60.00,Saturday
141,70366833.05537665
190,0.0
2,14, 1,14, 0,16, 0.00,60.00,Saturday
141,70758503.78867514
190,0.0
2,14, 1,14, 0,17, 0.00,60.00,Saturday
141,71448928.57728267
190,0.0
2,14, 1,14, 0,18, 0.00,60.00,Saturday
141,73011879.38457863
190,0.0
2,14, 1,14, 0,19, 0.00,60.00,Saturday
141,73144493.78343774
190,0.0
2,14, 1,14, 0,20, 0.00,60.00,Saturday
141,73659986.94312048
190,0.0
2,14, 1,14, 0,21, 0.00,60.00,Saturday
141,73775659.48681448
190,0.0
2,14, 1,14, 0,22, 0.00,60.00,Saturday
141,73705403.98946999
190,0.0
2,14, 1,14, 0,23, 0.00,60.00,Saturday
141,73823506.71398136
190,0.0
2,14, 1,14, 0,24, 0.00,60.00,Saturday
141,74164603.33393058
190,0.0
2,15, 1,15, 0, 1, 0.00,60.00,Sunday
141,73615502.63437961
190,0.0
2,15, 1,15, 0, 2, 0.00,60.00,Sunday
141,71599702.04018849
190,0.0
2,15, 1,15, 0, 3, 0.00,60.00,Sunday
141,70701857.58036539
190,0.0
2,15, 1,15, 0, 4, 0.00,60.00,Sunday
141,70006446.98475675
190,0.0
2,15, 1,15, 0, 5, 0.00,60.00,Sunday
141,68459655.07427356
190,0.0
2,15, 1,15, 0, 6, 0.00,60.00,Sunday
141,66681747.60923131
190,0.0
2,15, 1,15, 0, 7, 0.00,60.00,Sunday
141,64794376.15196051
190,0.0
2,15, 1,15, 0, 8, 0.00,60.00,Sunday
141,63332863.06375829
190,0.0
2,15, 1,15, 0, 9, 0.00,60.00,Sunday
141,62029468.79634635
190,0.0
2,15, 1,15, 0,10, 0.00,60.00,Sunday
141,61326965.791637905
190,0.0
2,15, 1,15, 0,11, 0.00,60.00,Sunday
141,61512138.44460536
190,0.0
2,15, 1,15, 0,12, 0.00,60.00,Sunday
141,62977562.9058069
190,0.0
2,15, 1,15, 0,13, 0.00,60.00,Sunday
141,63869920.59046464
190,0.0
2,15, 1,15, 0,14, 0.00,60.00,Sunday
141,63900621.27781656
190,0.0
2,15, 1,15, 0,15, 0.00,60.00,Sunday
141,63673979.50739153
190,0.0
2,15, 1,15, 0,16, 0.00,60.00,Sunday
141,62804634.778335646
190,0.0
2,15, 1,15, 0,17, 0.00,60.00,Sunday
141,62225471.65792424
190,0.0
2,15, 1,15, 0,18, 0.00,60.00,Sunday
141,62215265.252246946
190,0.0
2,15, 1,15, 0,19, 0.00,60.00,Sunday
141,62433790.019764245
190,0.0
2,15, 1,15, 0,20, 0.00,60.00,Sunday
141,62756150.71965064
190,0.0
2,15, 1,15, 0,21, 0.00,60.00,Sunday
141,63661498.02813324
190,0.0
2,15, 1,15, 0,22, 0.00,60.00,Sunday
141,64106838.40877838
190,0.0
2,15, 1,15, 0,23, 0.00,60.00,Sunday
141,64258399.12745988
190,0.0
2,15, 1,15, 0,24, 0.00,60.00,Sunday
141,64696300.03698006
190,0.0
2,16, 1,16, 0, 1, 0.00,60.00,Monday
141,65869720.84618464
190,0.0
2,16, 1,16, 0, 2, 0.00,60.00,Monday
141,67035952.22586287
190,0.0
2,16, 1,16, 0, 3, 0.00,60.00,Monday
141,67847199.8136726
190,0.0
2,16, 1,16, 0, 4, 0.00,60.00,Monday
141,68494904.79758689
190,0.0
2,16, 1,16, 0, 5, 0.00,60.00,Monday
141,69252031.61052443
190,0.0
2,16, 1,16, 0, 6, 0.00,60.00,Monday
141,69878188.04827097
190,0.0
2,16, 1,16, 0, 7, 0.00,60.00,Monday
141,70945584.44661318
190,0.0
2,16, 1,16, 0, 8, 0.00,60.00,Monday
141,71936662.61714986
190,0.0
2,16, 1,16, 0, 9, 0.00,60.00,Monday
141,72419268.74113499
190,0.0
2,16, 1,16, 0,10, 0.00,60.00,Monday
141,72541243.75765617
190,0.0
2,16, 1,16, 0,11, 0.00,60.00,Monday
141,70708814.06278579
190,0.0
2,16, 1,16, 0,12, 0.00,60.00,Monday
141,69073929.24079382
190,0.0
2,16, 1,16, 0,13, 0.00,60.00,Monday
141,67711629.72064868
190,0.0
2,16, 1,16, 0,14, 0.00,60.00,Monday
141,66687433.18108772
190,0.0
2,16, 1,16, 0,15, 0.00,60.00,Monday
141,66474228.290153824
190,0.0
2,16, 1,16, 0,16, 0.00,60.00,Monday
141,66834981.77874909
190,0.0
2,16, 1,16, 0,17, 0.00,60.00,Monday
141,67834822.17448394
190,0.0
2,16, 1,16, 0,18, 0.00,60.00,Monday
141,69734025.18917578
190,0.0
2,16, 1,16, 0,19, 0.00,60.00,Monday
141,71678660.85614416
190,0.0
2,16, 1,16, 0,20, 0.00,60.00,Monday
141,72612443.45489728
190,0.0
2,16, 1,16, 0,21, 0.00,60.00,Monday
141,73324231.19614321
190,0.0
2,16, 1,16, 0,22, 0.00,60.00,Monday
141,73971302.71001336
190,0.0
2,16, 1,16, 0,23, 0.00,60.00,Monday
141,74988513.16478331
190,0.0
2,16, 1,16, 0,24, 0.00,60.00,Monday
141,75181875.37648839
190,0.0
2,17, 1,17, 0, 1, 0.00,60.00,Tuesday
141,75527882.82348783
190,0.0
2,17, 1,17, 0, 2, 0.00,60.00,Tuesday
141,76996016.76768371
190,0.0
2,17, 1,17, 0, 3, 0.00,60.00,Tuesday
141,78389733.28239243
190,0.0
2,17, 1,17, 0, 4, 0.00,60.00,Tuesday
141,79686711.57065657
190,0.0
2,17, 1,17, 0, 5, 0.00,60.00,Tuesday
141,81094476.75133304
190,0.0
2,17, 1,17, 0, 6, 0.00,60.00,Tuesday
141,82495197.78859678
190,0.0
2,17, 1,17, 0, 7, 0.00,60.00,Tuesday
141,83468691.57370931
190,0.0
2,17, 1,17, 0, 8, 0.00,60.00,Tuesday
141,84151281.77570136
190,0.0
2,17, 1,17, 0, 9, 0.00,60.00,Tuesday
141,84573281.15898827
190,0.0
2,17, 1,17, 0,10, 0.00,60.00,Tuesday
141,82695990.99345154
190,0.0
2,17, 1,17, 0,11, 0.00,60.00,Tuesday
141,79749667.89961314
190,0.0
2,17, 1,17, 0,12, 0.00,60.00,Tuesday
141,77187752.60102284
190,0.0
2,17, 1,17, 0,13, 0.00,60.00,Tuesday
141,75619796.35047908
190,0.0
2,17, 1,17, 0,14, 0.00,60.00,Tuesday
141,75046271.73750903
190,0.0
2,17, 1,17, 0,15, 0.00,60.00,Tuesday
141,75023614.66191445
190,0.0
2,17, 1,17, 0,16, 0.00,60.00,Tuesday
141,75767146.35238048
190,0.0
2,17, 1,17, 0,17, 0.00,60.00,Tuesday
141,76014828.50369424
190,0.0
2,17, 1,17, 0,18, 0.00,60.00,Tuesday
141,75122230.79518071
190,0.0
2,17, 1,17, 0,19, 0.00,60.00,Tuesday
141,74138934.36819105
190,0.0
2,17, 1,17, 0,20, 0.00,60.00,Tuesday
141,73807385.00970942
190,0.0
2,17, 1,17, 0,21, 0.00,60.00,Tuesday
141,73931182.75228259
190,0.0
2,17, 1,17, 0,22, 0.00,60.00,Tuesday
141,73844051.7524831
190,0.0
2,17, 1,17, 0,23, 0.00,60.00,Tuesday
141,73892235.9813148
190,0.0
2,17, 1,17, 0,24, 0.00,60.00,Tuesday
141,74670727.85390319
190,0.0
2,18, 1,18, 0, 1, 0.00,60.00,Wednesday
141,75306071.73925753
190,0.0
2,18, 1,18, 0, 2, 0.00,60.00,Wednesday
141,75970261.63558906
190,0.0
2,18, 1,18, 0, 3, 0.00,60.00,Wednesday
141,76546098.44166978
190,0.0
2,18, 1,18, 0, 4, 0.00,60.00,Wednesday
141,77003696.28782025
190,0.0
2,18, 1,18, 0, 5, 0.00,60.00,Wednesday
141,77524284.45235544
190,0.0
2,18, 1,18, 0, 6, 0.00,60.00,Wednesday
141,78111879.80290674
190,0.0
2,18, 1,18, 0, 7, 0.00,60.00,Wednesday
141,79556734.02465227
190,0.0
2,18, 1,18, 0, 8, 0.00,60.00,Wednesday
141,80152766.29096371
190,0.0
2,18, 1,18, 0, 9, 0.00,60.00,Wednesday
141,80541244.82989779
190,0.0
2,18, 1,18, 0,10, 0.00,60.00,Wednesday
141,80645145.77534488
190,0.0
2,18, 1,18, 0,11, 0.00,60.00,Wednesday
141,79705462.40828656
190,0.0
2,18, 1,18, 0,12, 0.00,60.00,Wednesday
141,78979734.17031276
190,0.0
2,18, 1,18, 0,13, 0.00,60.00,Wednesday
141,79405345.46041803
190,0.0
2,18, 1,18, 0,14, 0.00,60.00,Wednesday
141,80198533.78714731
190,0.0
2,18, 1,18, 0,15, 0.00,60.00,Wednesday
141,80540820.39217615
190,0.0
2,18, 1,18, 0,16, 0.00,60.00,Wednesday
141,81338204.6100321
190,0.0
2,18, 1,18, 0,17, 0.00,60.00,Wednesday
141,81653925.70766343
190,0.0
2,18, 1,18, 0,18, 0.00,60.00,Wednesday
141,81162671.71675023
190,0.0
2,18, 1,18, 0,19, 0.00,60.00,Wednesday
141,80920540.03565091
190,0.0
2,18, 1,18, 0,20, 0.00,60.00,Wednesday
141,81076109.92634776
190,0.0
2,18, 1,18, 0,21, 0.00,60.00,Wednesday
141,81211328.49687047
190,0.0
2,18, 1,18, 0,22, 0.00,60.00,Wednesday
141,81535856.56899989
190,0.0
2,18, 1,18, 0,23, 0.00,60.00,Wednesday
141,81768567.86646995
190,0.0
2,18, 1,18, 0,24, 0.00,60.00,Wednesday
141,82065570.9457814
190,0.0
2,19, 1,19, 0, 1, 0.00,60.00,Thursday
141,81711796.45682362
190,0.0
2,19, 1,19, 0, 2, 0.00,60.00,Thursday
141,81867658.20019282
190,0.0
2,19, 1,19, 0, 3, 0.00,60.00,Thursday
141,82820525.88457517
190,0.0
2,19, 1,19, 0, 4, 0.00,60.00,Thursday
141,82792534.01979761
190,0.0
2,19, 1,19, 0, 5, 0.00,60.00,Thursday