Program Version,EnergyPlus, Version 24.2.0-94a887817b, YMD=2025.04.24 13:23
1,5,Environment Title[],Latitude[deg],Longitude[deg],Time Zone[],Elevation[m]
2,8,Day of Simulation[],Month[],Day of Month[],DST Indicator[1=yes 0=no],Hour[],StartMinute[],EndMinute[],DayType
3,5,Cumulative Day of Simulation[],Month[],Day of Month[],DST Indicator[1=yes 0=no],DayType  ! When Daily Report Variables Requested
4,2,Cumulative Days of Simulation[],Month[]  ! When Monthly Report Variables Requested
5,1,Cumulative Days of Simulation[] ! When Run Period Report Variables Requested
6,1,Calendar Year of Simulation[] ! When Annual Report Variables Requested
141,1,ZONE_0599100000766111 IDEAL LOADS AIR SYSTEM,Zone Ideal Loads Supply Air Total Heating Energy [J] !Hourly
190,1,ZONE_0599100000766111 IDEAL LOADS AIR SYSTEM,Zone Ideal Loads Supply Air Total Cooling Energy [J] !Hourly
End of Data Dictionary
1,RUN PERIOD 1,  51.96,   4.45,   1.00,  -4.50
2,1, 1, 1, 0, 1, 0.00,60.00,Sunday
141,27813536.897752803
190,0.0
2,1, 1, 1, 0, 2, 0.00,60.00,Sunday
141,28819580.701667093
190,0.0
2,1, 1, 1, 0, 3, 0.00,60.00,Sunday
141,28806486.597756695
190,0.0
2,1, 1, 1, 0, 4, 0.00,60.00,Sunday
141,29547502.88089983
190,0.0
2,1, 1, 1, 0, 5, 0.00,60.00,Sunday
141,30050635.503171094
190,0.0
2,1, 1, 1, 0, 6, 0.00,60.00,Sunday
141,30102313.268731378
190,0.0
2,1, 1, 1, 0, 7, 0.00,60.00,Sunday
141,30187870.831216924
190,0.0
2,1, 1, 1, 0, 8, 0.00,60.00,Sunday
141,30114602.807546265
190,0.0
2,1, 1, 1, 0, 9, 0.00,60.00,Sunday
141,30049211.742318705
190,0.0
2,1, 1, 1, 0,10, 0.00,60.00,Sunday
141,29803255.388589058
190,0.0
2,1, 1, 1, 0,11, 0.00,60.00,Sunday
141,29177653.39578431
190,0.0
2,1, 1, 1, 0,12, 0.00,60.00,Sunday
141,28168268.092691462
190,0.0
2,1, 1, 1, 0,13, 0.00,60.00,Sunday
141,27671413.02378256
190,0.0
2,1, 1, 1, 0,14, 0.00,60.00,Sunday
141,26987939.027871743
190,0.0
2,1, 1, 1, 0,15, 0.00,60.00,Sunday
141,26514092.595379356
190,0.0
2,1, 1, 1, 0,16, 0.00,60.00,Sunday
141,26977264.04328554
190,0.0
2,1, 1, 1, 0,17, 0.00,60.00,Sunday
141,27561299.67100059
190,0.0
2,1, 1, 1, 0,18, 0.00,60.00,Sunday
141,27748886.947581723
190,0.0
2,1, 1, 1, 0,19, 0.00,60.00,Sunday
141,27914251.353501733
190,0.0
2,1, 1, 1, 0,20, 0.00,60.00,Sunday
141,27886090.73725632
190,0.0
2,1, 1, 1, 0,21, 0.00,60.00,Sunday
141,27792094.969973058
190,0.0
2,1, 1, 1, 0,22, 0.00,60.00,Sunday
141,27856773.850345094
190,0.0
2,1, 1, 1, 0,23, 0.00,60.00,Sunday
141,27155794.72124397
190,0.0
2,1, 1, 1, 0,24, 0.00,60.00,Sunday
141,26634265.434096478
190,0.0
2,2, 1, 2, 0, 1, 0.00,60.00,Monday
141,26725982.783840943
190,0.0
2,2, 1, 2, 0, 2, 0.00,60.00,Monday
141,26017194.973648537
190,0.0
2,2, 1, 2, 0, 3, 0.00,60.00,Monday
141,25472433.23346962
190,0.0
2,2, 1, 2, 0, 4, 0.00,60.00,Monday
141,24921015.17204637
190,0.0
2,2, 1, 2, 0, 5, 0.00,60.00,Monday
141,23717197.97371648
190,0.0
2,2, 1, 2, 0, 6, 0.00,60.00,Monday
141,23145494.23739602
190,0.0
2,2, 1, 2, 0, 7, 0.00,60.00,Monday
141,22249271.688068148
190,0.0
2,2, 1, 2, 0, 8, 0.00,60.00,Monday
141,21158663.543167662
190,0.0
2,2, 1, 2, 0, 9, 0.00,60.00,Monday
141,21506826.72174822
190,0.0
2,2, 1, 2, 0,10, 0.00,60.00,Monday
141,22336717.411120318
190,0.0
2,2, 1, 2, 0,11, 0.00,60.00,Monday
141,22906693.886975948
190,0.0
2,2, 1, 2, 0,12, 0.00,60.00,Monday
141,22454459.180166356
190,0.0
2,2, 1, 2, 0,13, 0.00,60.00,Monday
141,22276519.785994645
190,0.0
2,2, 1, 2, 0,14, 0.00,60.00,Monday
141,22856607.08651958
190,0.0
2,2, 1, 2, 0,15, 0.00,60.00,Monday
141,23105508.120216165
190,0.0
2,2, 1, 2, 0,16, 0.00,60.00,Monday
141,23636856.38675078
190,0.0
2,2, 1, 2, 0,17, 0.00,60.00,Monday
141,24150006.93728629
190,0.0
2,2, 1, 2, 0,18, 0.00,60.00,Monday
141,24229552.24480204
190,0.0
2,2, 1, 2, 0,19, 0.00,60.00,Monday
141,24785708.13910202
190,0.0
2,2, 1, 2, 0,20, 0.00,60.00,Monday
141,25289891.823958363
190,0.0
2,2, 1, 2, 0,21, 0.00,60.00,Monday
141,25347498.78452824
190,0.0
2,2, 1, 2, 0,22, 0.00,60.00,Monday
141,25300587.840895183
190,0.0
2,2, 1, 2, 0,23, 0.00,60.00,Monday
141,25288721.572864383
190,0.0
2,2, 1, 2, 0,24, 0.00,60.00,Monday
141,25288108.322508596
190,0.0
2,3, 1, 3, 0, 1, 0.00,60.00,Tuesday
141,25306378.066689096
190,0.0
2,3, 1, 3, 0, 2, 0.00,60.00,Tuesday
141,25276362.471740145
190,0.0
2,3, 1, 3, 0, 3, 0.00,60.00,Tuesday
141,25231115.982786793
190,0.0
2,3, 1, 3, 0, 4, 0.00,60.00,Tuesday
141,25296859.56706287
190,0.0
2,3, 1, 3, 0, 5, 0.00,60.00,Tuesday
141,25947988.13330748
190,0.0
2,3, 1, 3, 0, 6, 0.00,60.00,Tuesday
141,26364549.064842455
190,0.0
2,3, 1, 3, 0, 7, 0.00,60.00,Tuesday
141,26557640.66341494
190,0.0
2,3, 1, 3, 0, 8, 0.00,60.00,Tuesday
141,26486008.53518516
190,0.0
2,3, 1, 3, 0, 9, 0.00,60.00,Tuesday
141,27021975.183829658
190,0.0
2,3, 1, 3, 0,10, 0.00,60.00,Tuesday
141,27276523.322082456
190,0.0
2,3, 1, 3, 0,11, 0.00,60.00,Tuesday
141,27336674.627728745
190,0.0
2,3, 1, 3, 0,12, 0.00,60.00,Tuesday
141,27497311.65193188
190,0.0
2,3, 1, 3, 0,13, 0.00,60.00,Tuesday
141,28333184.043442465
190,0.0
2,3, 1, 3, 0,14, 0.00,60.00,Tuesday
141,28790939.88813506
190,0.0
2,3, 1, 3, 0,15, 0.00,60.00,Tuesday
141,28687281.29944489
190,0.0
2,3, 1, 3, 0,16, 0.00,60.00,Tuesday
141,28594178.849065542
190,0.0
2,3, 1, 3, 0,17, 0.00,60.00,Tuesday
141,28621153.930457633
190,0.0
2,3, 1, 3, 0,18, 0.00,60.00,Tuesday
141,28689269.52216723
190,0.0
2,3, 1, 3, 0,19, 0.00,60.00,Tuesday
141,28554229.19051776
190,0.0
2,3, 1, 3, 0,20, 0.00,60.00,Tuesday
141,27894382.484304387
190,0.0
2,3, 1, 3, 0,21, 0.00,60.00,Tuesday
141,26111300.380246595
190,0.0
2,3, 1, 3, 0,22, 0.00,60.00,Tuesday
141,25154721.855424806
190,0.0
2,3, 1, 3, 0,23, 0.00,60.00,Tuesday
141,25836717.333659414
190,0.0
2,3, 1, 3, 0,24, 0.00,60.00,Tuesday
141,27000350.51733631
190,0.0
2,4, 1, 4, 0, 1, 0.00,60.00,Wednesday
141,27580417.30063555
190,0.0
2,4, 1, 4, 0, 2, 0.00,60.00,Wednesday
141,27489327.506426647
190,0.0
2,4, 1, 4, 0, 3, 0.00,60.00,Wednesday
141,27313918.45889301
190,0.0
2,4, 1, 4, 0, 4, 0.00,60.00,Wednesday
141,27509731.743246336
190,0.0
2,4, 1, 4, 0, 5, 0.00,60.00,Wednesday
141,28281328.444159515
190,0.0
2,4, 1, 4, 0, 6, 0.00,60.00,Wednesday
141,28076679.988606438
190,0.0
2,4, 1, 4, 0, 7, 0.00,60.00,Wednesday
141,28037077.88335345
190,0.0
2,4, 1, 4, 0, 8, 0.00,60.00,Wednesday
141,28344830.318195917
190,0.0
2,4, 1, 4, 0, 9, 0.00,60.00,Wednesday
141,28566594.378058016
190,0.0
2,4, 1, 4, 0,10, 0.00,60.00,Wednesday
141,28745830.97712348
190,0.0
2,4, 1, 4, 0,11, 0.00,60.00,Wednesday
141,27346049.069460623
190,0.0
2,4, 1, 4, 0,12, 0.00,60.00,Wednesday
141,24977785.676231217
190,0.0
2,4, 1, 4, 0,13, 0.00,60.00,Wednesday
141,24341470.284200475
190,0.0
2,4, 1, 4, 0,14, 0.00,60.00,Wednesday
141,24256427.75137472
190,0.0
2,4, 1, 4, 0,15, 0.00,60.00,Wednesday
141,24031116.693289503
190,0.0
2,4, 1, 4, 0,16, 0.00,60.00,Wednesday
141,25006423.860261865
190,0.0
2,4, 1, 4, 0,17, 0.00,60.00,Wednesday
141,26751312.23059843
190,0.0
2,4, 1, 4, 0,18, 0.00,60.00,Wednesday
141,28262448.202664863
190,0.0
2,4, 1, 4, 0,19, 0.00,60.00,Wednesday
141,29796492.142207634
190,0.0
2,4, 1, 4, 0,20, 0.00,60.00,Wednesday
141,30596572.253731817
190,0.0
2,4, 1, 4, 0,21, 0.00,60.00,Wednesday
141,30949964.105536677
190,0.0
2,4, 1, 4, 0,22, 0.00,60.00,Wednesday
141,31677372.813640818
190,0.0
2,4, 1, 4, 0,23, 0.00,60.00,Wednesday
141,31329074.76199715
190,0.0
2,4, 1, 4, 0,24, 0.00,60.00,Wednesday
141,30754688.647985276
190,0.0
2,5, 1, 5, 0, 1, 0.00,60.00,Thursday
141,30922971.54988174
190,0.0
2,5, 1, 5, 0, 2, 0.00,60.00,Thursday
141,30516490.67096081
190,0.0
2,5, 1, 5, 0, 3, 0.00,60.00,Thursday
141,30125924.184802994
190,0.0
2,5, 1, 5, 0, 4, 0.00,60.00,Thursday
141,30178532.096984398
190,0.0
2,5, 1, 5, 0, 5, 0.00,60.00,Thursday
141,29750086.162054844
190,0.0
2,5, 1, 5, 0, 6, 0.00,60.00,Thursday
141,29569225.94265843
190,0.0
2,5, 1, 5, 0, 7, 0.00,60.00,Thursday
141,29847272.588927083
190,0.0
2,5, 1, 5, 0, 8, 0.00,60.00,Thursday
141,30095687.149268497
190,0.0
2,5, 1, 5, 0, 9, 0.00,60.00,Thursday
141,30190243.02387535
190,0.0
2,5, 1, 5, 0,10, 0.00,60.00,Thursday
141,30656674.257353883
190,0.0
2,5, 1, 5, 0,11, 0.00,60.00,Thursday
141,30543267.026358157
190,0.0
2,5, 1, 5, 0,12, 0.00,60.00,Thursday
141,29534605.163416035
190,0.0
2,5, 1, 5, 0,13, 0.00,60.00,Thursday
141,29185848.631274365
190,0.0
2,5, 1, 5, 0,14, 0.00,60.00,Thursday
141,28464416.743471902
190,0.0
2,5, 1, 5, 0,15, 0.00,60.00,Thursday
141,27893601.692446295
190,0.0
2,5, 1, 5, 0,16, 0.00,60.00,Thursday
141,28374362.781647734
190,0.0
2,5, 1, 5, 0,17, 0.00,60.00,Thursday
141,28263487.08888684
190,0.0
2,5, 1, 5, 0,18, 0.00,60.00,Thursday
141,27955858.343524016
190,0.0
2,5, 1, 5, 0,19, 0.00,60.00,Thursday
141,28138874.11652097
190,0.0
2,5, 1, 5, 0,20, 0.00,60.00,Thursday
141,28110177.800817963
190,0.0
2,5, 1, 5, 0,21, 0.00,60.00,Thursday
141,28009434.422192294
190,0.0
2,5, 1, 5, 0,22, 0.00,60.00,Thursday
141,28037448.45829215
190,0.0
2,5, 1, 5, 0,23, 0.00,60.00,Thursday
141,28197890.746621422
190,0.0
2,5, 1, 5, 0,24, 0.00,60.00,Thursday
141,28371848.197889023
190,0.0
2,6, 1, 6, 0, 1, 0.00,60.00,Friday
141,28489030.38497677
190,0.0
2,6, 1, 6, 0, 2, 0.00,60.00,Friday
141,28601035.613300044
190,0.0
2,6, 1, 6, 0, 3, 0.00,60.00,Friday
141,29282892.62609996
190,0.0
2,6, 1, 6, 0, 4, 0.00,60.00,Friday
141,29943040.277190484
190,0.0
2,6, 1, 6, 0, 5, 0.00,60.00,Friday
141,30289923.555601247
190,0.0
2,6, 1, 6, 0, 6, 0.00,60.00,Friday
141,30710473.893981453
190,0.0
2,6, 1, 6, 0, 7, 0.00,60.00,Friday
141,31328702.969941504
190,0.0
2,6, 1, 6, 0, 8, 0.00,60.00,Friday
141,31912478.626444086
190,0.0
2,6, 1, 6, 0, 9, 0.00,60.00,Friday
141,32614128.117162883
190,0.0
2,6, 1, 6, 0,10, 0.00,60.00,Friday
141,33030334.896209363
190,0.0
2,6, 1, 6, 0,11, 0.00,60.00,Friday
141,32564047.157148268
190,0.0
2,6, 1, 6, 0,12, 0.00,60.00,Friday
141,31835287.738812163
190,0.0
2,6, 1, 6, 0,13, 0.00,60.00,Friday
141,31489671.673541795
190,0.0
2,6, 1, 6, 0,14, 0.00,60.00,Friday
141,31350122.520474285
190,0.0
2,6, 1, 6, 0,15, 0.00,60.00,Friday
141,31154643.04221091
190,0.0
2,6, 1, 6, 0,16, 0.00,60.00,Friday
141,30699114.44117871
190,0.0
2,6, 1, 6, 0,17, 0.00,60.00,Friday
141,30228450.29134037
190,0.0
2,6, 1, 6, 0,18, 0.00,60.00,Friday
141,30005365.88186798
190,0.0
2,6, 1, 6, 0,19, 0.00,60.00,Friday
141,29744364.14152897
190,0.0
2,6, 1, 6, 0,20, 0.00,60.00,Friday
141,29105509.978306804
190,0.0
2,6, 1, 6, 0,21, 0.00,60.00,Friday
141,27502976.314341385
190,0.0
2,6, 1, 6, 0,22, 0.00,60.00,Friday
141,25584405.273985453
190,0.0
2,6, 1, 6, 0,23, 0.00,60.00,Friday
141,24728272.904919773
190,0.0
2,6, 1, 6, 0,24, 0.00,60.00,Friday
141,24920336.10275458
190,0.0
2,7, 1, 7, 0, 1, 0.00,60.00,Saturday
141,26444790.010663435
190,0.0
2,7, 1, 7, 0, 2, 0.00,60.00,Saturday
141,27964004.916498736
190,0.0
2,7, 1, 7, 0, 3, 0.00,60.00,Saturday
141,27749291.1130535
190,0.0
2,7, 1, 7, 0, 4, 0.00,60.00,Saturday
141,27871067.318835154
190,0.0
2,7, 1, 7, 0, 5, 0.00,60.00,Saturday
141,28906898.76981031
190,0.0
2,7, 1, 7, 0, 6, 0.00,60.00,Saturday
141,29716211.12517554
190,0.0
2,7, 1, 7, 0, 7, 0.00,60.00,Saturday
141,30188357.864462793
190,0.0
2,7, 1, 7, 0, 8, 0.00,60.00,Saturday
141,30417895.622451663
190,0.0
2,7, 1, 7, 0, 9, 0.00,60.00,Saturday
141,29831325.94034423
190,0.0
2,7, 1, 7, 0,10, 0.00,60.00,Saturday
141,29304837.397065423
190,0.0
2,7, 1, 7, 0,11, 0.00,60.00,Saturday
141,27772083.380021133
190,0.0
2,7, 1, 7, 0,12, 0.00,60.00,Saturday
141,26229102.13444
190,0.0
2,7, 1, 7, 0,13, 0.00,60.00,Saturday
141,25112170.242429085
190,0.0
2,7, 1, 7, 0,14, 0.00,60.00,Saturday
141,24559068.854565814
190,0.0
2,7, 1, 7, 0,15, 0.00,60.00,Saturday
141,24828143.450550977
190,0.0
2,7, 1, 7, 0,16, 0.00,60.00,Saturday
141,25374417.046211034
190,0.0
2,7, 1, 7, 0,17, 0.00,60.00,Saturday
141,25836891.56159354
190,0.0
2,7, 1, 7, 0,18, 0.00,60.00,Saturday
141,26615393.026373126
190,0.0
2,7, 1, 7, 0,19, 0.00,60.00,Saturday
141,27340813.445558175
190,0.0
2,7, 1, 7, 0,20, 0.00,60.00,Saturday
141,28035030.723332986
190,0.0
2,7, 1, 7, 0,21, 0.00,60.00,Saturday
141,28527748.762729343
190,0.0
2,7, 1, 7, 0,22, 0.00,60.00,Saturday
141,28550237.748831734
190,0.0
2,7, 1, 7, 0,23, 0.00,60.00,Saturday
141,28632436.609643348
190,0.0
2,7, 1, 7, 0,24, 0.00,60.00,Saturday
141,28577613.69081246
190,0.0
2,8, 1, 8, 0, 1, 0.00,60.00,Sunday
141,28108246.1969854
190,0.0
2,8, 1, 8, 0, 2, 0.00,60.00,Sunday
141,27560243.653333873
190,0.0
2,8, 1, 8, 0, 3, 0.00,60.00,Sunday
141,27062317.071825486
190,0.0
2,8, 1, 8, 0, 4, 0.00,60.00,Sunday
141,26357802.64877023
190,0.0
2,8, 1, 8, 0, 5, 0.00,60.00,Sunday
141,25505627.757263504
190,0.0
2,8, 1, 8, 0, 6, 0.00,60.00,Sunday
141,24864392.859864756
190,0.0
2,8, 1, 8, 0, 7, 0.00,60.00,Sunday
141,24374315.21548432
190,0.0
2,8, 1, 8, 0, 8, 0.00,60.00,Sunday
141,23954712.85638287
190,0.0
2,8, 1, 8, 0, 9, 0.00,60.00,Sunday
141,23518199.503275163
190,0.0
2,8, 1, 8, 0,10, 0.00,60.00,Sunday
141,23376346.3865726
190,0.0
2,8, 1, 8, 0,11, 0.00,60.00,Sunday
141,23268648.82832049
190,0.0
2,8, 1, 8, 0,12, 0.00,60.00,Sunday
141,23355894.619483147
190,0.0
2,8, 1, 8, 0,13, 0.00,60.00,Sunday
141,23277115.236860175
190,0.0
2,8, 1, 8, 0,14, 0.00,60.00,Sunday
141,23381012.929217298
190,0.0
2,8, 1, 8, 0,15, 0.00,60.00,Sunday
141,24319739.63644362
190,0.0
2,8, 1, 8, 0,16, 0.00,60.00,Sunday
141,24996496.296149205
190,0.0
2,8, 1, 8, 0,17, 0.00,60.00,Sunday
141,25031238.75059429
190,0.0
2,8, 1, 8, 0,18, 0.00,60.00,Sunday
141,25329833.56343678
190,0.0
2,8, 1, 8, 0,19, 0.00,60.00,Sunday
141,25166233.81869531
190,0.0
2,8, 1, 8, 0,20, 0.00,60.00,Sunday
141,24597467.887375377
190,0.0
2,8, 1, 8, 0,21, 0.00,60.00,Sunday
141,24187040.175487652
190,0.0
2,8, 1, 8, 0,22, 0.00,60.00,Sunday
141,24298993.80899885
190,0.0
2,8, 1, 8, 0,23, 0.00,60.00,Sunday
141,24403629.502243165
190,0.0
2,8, 1, 8, 0,24, 0.00,60.00,Sunday
141,24735543.27917135
190,0.0
2,9, 1, 9, 0, 1, 0.00,60.00,Monday
141,24795973.924844995
190,0.0
2,9, 1, 9, 0, 2, 0.00,60.00,Monday
141,24830838.529506613
190,0.0
2,9, 1, 9, 0, 3, 0.00,60.00,Monday
141,24745494.237533137
190,0.0
2,9, 1, 9, 0, 4, 0.00,60.00,Monday
141,24535973.1078358
190,0.0
2,9, 1, 9, 0, 5, 0.00,60.00,Monday
141,24070368.866474655
190,0.0
2,9, 1, 9, 0, 6, 0.00,60.00,Monday
141,23599741.712364454
190,0.0
2,9, 1, 9, 0, 7, 0.00,60.00,Monday
141,23260092.584751707
190,0.0
2,9, 1, 9, 0, 8, 0.00,60.00,Monday
141,23075993.85422337
190,0.0
2,9, 1, 9, 0, 9, 0.00,60.00,Monday
141,22572302.775286663
190,0.0
2,9, 1, 9, 0,10, 0.00,60.00,Monday
141,21347825.08096045
190,0.0
2,9, 1, 9, 0,11, 0.00,60.00,Monday
141,20305325.940041702
190,0.0
2,9, 1, 9, 0,12, 0.00,60.00,Monday
141,19730105.31877379
190,0.0
2,9, 1, 9, 0,13, 0.00,60.00,Monday
141,19256678.117392916
190,0.0
2,9, 1, 9, 0,14, 0.00,60.00,Monday
141,18914018.26858661
190,0.0
2,9, 1, 9, 0,15, 0.00,60.00,Monday
141,18800189.58390574
190,0.0
2,9, 1, 9, 0,16, 0.00,60.00,Monday
141,19053039.25674657
190,0.0
2,9, 1, 9, 0,17, 0.00,60.00,Monday
141,19891635.83951569
190,0.0
2,9, 1, 9, 0,18, 0.00,60.00,Monday
141,20682814.822672125
190,0.0
2,9, 1, 9, 0,19, 0.00,60.00,Monday
141,20624230.35481281
190,0.0
2,9, 1, 9, 0,20, 0.00,60.00,Monday
141,19529862.521652866
190,0.0
2,9, 1, 9, 0,21, 0.00,60.00,Monday
141,18423232.449624233
190,0.0
2,9, 1, 9, 0,22, 0.00,60.00,Monday
141,17745297.770821422
190,0.0
2,9, 1, 9, 0,23, 0.00,60.00,Monday
141,17620137.112987645
190,0.0
2,9, 1, 9, 0,24, 0.00,60.00,Monday
141,17691408.194221072
190,0.0
2,10, 1,10, 0, 1, 0.00,60.00,Tuesday
141,17998373.250661828
190,0.0
2,10, 1,10, 0, 2, 0.00,60.00,Tuesday
141,18209448.639168136
190,0.0
2,10, 1,10, 0, 3, 0.00,60.00,Tuesday
141,18250128.65858339
190,0.0
2,10, 1,10, 0, 4, 0.00,60.00,Tuesday
141,18595699.32370853
190,0.0
2,10, 1,10, 0, 5, 0.00,60.00,Tuesday
141,18727280.278781023
190,0.0
2,10, 1,10, 0, 6, 0.00,60.00,Tuesday
141,18775564.124993023
190,0.0
2,10, 1,10, 0, 7, 0.00,60.00,Tuesday
141,18832144.89323821
190,0.0
2,10, 1,10, 0, 8, 0.00,60.00,Tuesday
141,18724683.7792524
190,0.0
2,10, 1,10, 0, 9, 0.00,60.00,Tuesday
141,18565714.6419662
190,0.0
2,10, 1,10, 0,10, 0.00,60.00,Tuesday
141,18344489.706599683
190,0.0
2,10, 1,10, 0,11, 0.00,60.00,Tuesday
141,18014782.45767413
190,0.0
2,10, 1,10, 0,12, 0.00,60.00,Tuesday
141,17635182.81827459
190,0.0
2,10, 1,10, 0,13, 0.00,60.00,Tuesday
141,17583524.023796078
190,0.0
2,10, 1,10, 0,14, 0.00,60.00,Tuesday
141,19028945.51540731
190,0.0
2,10, 1,10, 0,15, 0.00,60.00,Tuesday
141,20199112.10130952
190,0.0
2,10, 1,10, 0,16, 0.00,60.00,Tuesday
141,20923222.928780418
190,0.0
2,10, 1,10, 0,17, 0.00,60.00,Tuesday
141,21667155.02324186
190,0.0
2,10, 1,10, 0,18, 0.00,60.00,Tuesday
141,22627574.45455578
190,0.0
2,10, 1,10, 0,19, 0.00,60.00,Tuesday
141,23136930.411899347
190,0.0
2,10, 1,10, 0,20, 0.00,60.00,Tuesday
141,23517937.345644686
190,0.0
2,10, 1,10, 0,21, 0.00,60.00,Tuesday
141,24117986.84397881
190,0.0
2,10, 1,10, 0,22, 0.00,60.00,Tuesday
141,24458405.551826462
190,0.0
2,10, 1,10, 0,23, 0.00,60.00,Tuesday
141,24240678.15624078
190,0.0
2,10, 1,10, 0,24, 0.00,60.00,Tuesday
141,24627850.148533862
190,0.0
2,11, 1,11, 0, 1, 0.00,60.00,Wednesday
141,24684188.610605445
190,0.0
2,11, 1,11, 0, 2, 0.00,60.00,Wednesday
141,24738243.331003204
190,0.0
2,11, 1,11, 0, 3, 0.00,60.00,Wednesday
141,24945802.82148216
190,0.0
2,11, 1,11, 0, 4, 0.00,60.00,Wednesday
141,24634648.489302203
190,0.0
2,11, 1,11, 0, 5, 0.00,60.00,Wednesday
141,24408838.83853226
190,0.0
2,11, 1,11, 0, 6, 0.00,60.00,Wednesday
141,24317770.264019225
190,0.0
2,11, 1,11, 0, 7, 0.00,60.00,Wednesday
141,24392193.430424232
190,0.0
2,11, 1,11, 0, 8, 0.00,60.00,Wednesday
141,24485029.04660774
190,0.0
2,11, 1,11, 0, 9, 0.00,60.00,Wednesday
141,24420870.388696063
190,0.0
2,11, 1,11, 0,10, 0.00,60.00,Wednesday
141,24249257.13376534
190,0.0
2,11, 1,11, 0,11, 0.00,60.00,Wednesday
141,23960462.039340056
190,0.0
2,11, 1,11, 0,12, 0.00,60.00,Wednesday
141,23487516.551104434
190,0.0
2,11, 1,11, 0,13, 0.00,60.00,Wednesday
141,23124322.833171424
190,0.0
2,11, 1,11, 0,14, 0.00,60.00,Wednesday
141,22973931.78225721
190,0.0
2,11, 1,11, 0,15, 0.00,60.00,Wednesday
141,22939722.318939403
190,0.0
2,11, 1,11, 0,16, 0.00,60.00,Wednesday
141,22959308.792007238
190,0.0
2,11, 1,11, 0,17, 0.00,60.00,Wednesday
141,22707974.682328723
190,0.0
2,11, 1,11, 0,18, 0.00,60.00,Wednesday
141,22467009.21371966
190,0.0
2,11, 1,11, 0,19, 0.00,60.00,Wednesday
141,22301312.536691412
190,0.0
2,11, 1,11, 0,20, 0.00,60.00,Wednesday
141,22287055.557114862
190,0.0
2,11, 1,11, 0,21, 0.00,60.00,Wednesday
141,22282794.086913127
190,0.0
2,11, 1,11, 0,22, 0.00,60.00,Wednesday
141,21768887.89341265
190,0.0
2,11, 1,11, 0,23, 0.00,60.00,Wednesday
141,21372233.405320015
190,0.0
2,11, 1,11, 0,24, 0.00,60.00,Wednesday
141,21404338.151013494
190,0.0
2,12, 1,12, 0, 1, 0.00,60.00,Thursday
141,21597053.958662286
190,0.0
2,12, 1,12, 0, 2, 0.00,60.00,Thursday
141,21626319.47779774
190,0.0
2,12, 1,12, 0, 3, 0.00,60.00,Thursday
141,21509509.177371766
190,0.0
2,12, 1,12, 0, 4, 0.00,60.00,Thursday
141,21531799.57929206
190,0.0
2,12, 1,12, 0, 5, 0.00,60.00,Thursday
141,21717418.860715434
190,0.0
2,12, 1,12, 0, 6, 0.00,60.00,Thursday
141,22148618.620085735
190,0.0
2,12, 1,12, 0, 7, 0.00,60.00,Thursday
141,22384094.317668483
190,0.0
2,12, 1,12, 0, 8, 0.00,60.00,Thursday
141,22445603.9555924
190,0.0
2,12, 1,12, 0, 9, 0.00,60.00,Thursday
141,22150552.65189708
190,0.0
2,12, 1,12, 0,10, 0.00,60.00,Thursday
141,21502884.350826584
190,0.0
2,12, 1,12, 0,11, 0.00,60.00,Thursday
141,21010033.19851226
190,0.0
2,12, 1,12, 0,12, 0.00,60.00,Thursday
141,20729329.365718666
190,0.0
2,12, 1,12, 0,13, 0.00,60.00,Thursday
141,20360066.12504449
190,0.0
2,12, 1,12, 0,14, 0.00,60.00,Thursday
141,19960959.77345364
190,0.0
2,12, 1,12, 0,15, 0.00,60.00,Thursday
141,19947756.058990948
190,0.0
2,12, 1,12, 0,16, 0.00,60.00,Thursday
141,20109062.6166952
190,0.0
2,12, 1,12, 0,17, 0.00,60.00,Thursday
141,20894208.269905355
190,0.0
2,12, 1,12, 0,18, 0.00,60.00,Thursday
141,21352929.308729604
190,0.0
2,12, 1,12, 0,19, 0.00,60.00,Thursday
141,21166406.21831537
190,0.0
2,12, 1,12, 0,20, 0.00,60.00,Thursday
141,20730304.567722917
190,0.0
2,12, 1,12, 0,21, 0.00,60.00,Thursday
141,20551451.02200824
190,0.0
2,12, 1,12, 0,22, 0.00,60.00,Thursday
141,20255846.53605385
190,0.0
2,12, 1,12, 0,23, 0.00,60.00,Thursday
141,20144195.166211683
190,0.0
2,12, 1,12, 0,24, 0.00,60.00,Thursday
141,20164525.903105658
190,0.0
2,13, 1,13, 0, 1, 0.00,60.00,Friday
141,19971893.020196505
190,0.0
2,13, 1,13, 0, 2, 0.00,60.00,Friday
141,19795774.57126797
190,0.0
2,13, 1,13, 0, 3, 0.00,60.00,Friday
141,19533155.939166963
190,0.0
2,13, 1,13, 0, 4, 0.00,60.00,Friday
141,19374259.624508113
190,0.0
2,13, 1,13, 0, 5, 0.00,60.00,Friday
141,19359963.076843303
190,0.0
2,13, 1,13, 0, 6, 0.00,60.00,Friday
141,19413167.339424767
190,0.0
2,13, 1,13, 0, 7, 0.00,60.00,Friday
141,19578319.485359263
190,0.0
2,13, 1,13, 0, 8, 0.00,60.00,Friday
141,19589839.90975858
190,0.0
2,13, 1,13, 0, 9, 0.00,60.00,Friday
141,19394742.303229634
190,0.0
2,13, 1,13, 0,10, 0.00,60.00,Friday
141,19884475.6308658
190,0.0
2,13, 1,13, 0,11, 0.00,60.00,Friday
141,20432349.979370203
190,0.0
2,13, 1,13, 0,12, 0.00,60.00,Friday
141,20467209.054324992
190,0.0
2,13, 1,13, 0,13, 0.00,60.00,Friday
141,20531080.88109699
190,0.0
2,13, 1,13, 0,14, 0.00,60.00,Friday
141,20865544.47716975
190,0.0
2,13, 1,13, 0,15, 0.00,60.00,Friday
141,21043780.627116416
190,0.0
2,13, 1,13, 0,16, 0.00,60.00,Friday
141,20967234.431389417
190,0.0
2,13, 1,13, 0,17, 0.00,60.00,Friday
141,20840736.205870006
190,0.0
2,13, 1,13, 0,18, 0.00,60.00,Friday
141,20775140.110610917
190,0.0
2,13, 1,13, 0,19, 0.00,60.00,Friday
141,21087803.31221308
190,0.0
2,13, 1,13, 0,20, 0.00,60.00,Friday
141,21651118.651748426
190,0.0
2,13, 1,13, 0,21, 0.00,60.00,Friday
141,22154051.7764486
190,0.0
2,13, 1,13, 0,22, 0.00,60.00,Friday
141,22469572.026673745
190,0.0
2,13, 1,13, 0,23, 0.00,60.00,Friday
141,22344755.139788527
190,0.0
2,13, 1,13, 0,24, 0.00,60.00,Friday
141,23670917.791911162
190,0.0
2,14, 1,14, 0, 1, 0.00,60.00,Saturday
141,24581887.019778773
190,0.0
2,14, 1,14, 0, 2, 0.00,60.00,Saturday
141,24194421.361134946
190,0.0
2,14, 1,14, 0, 3, 0.00,60.00,Saturday
141,24267181.44657851
190,0.0
2,14, 1,14, 0, 4, 0.00,60.00,Saturday
141,24118850.043843463
190,0.0
2,14, 1,14, 0, 5, 0.00,60.00,Saturday
141,24073757.39419177
190,0.0
2,14, 1,14, 0, 6, 0.00,60.00,Saturday
141,25039781.541182127
190,0.0
2,14, 1,14, 0, 7, 0.00,60.00,Saturday
141,25762875.596749235
190,0.0
2,14, 1,14, 0, 8, 0.00,60.00,Saturday
141,25515284.175129123
190,0.0
2,14, 1,14, 0, 9, 0.00,60.00,Saturday
141,25892518.545834314
190,0.0
2,14, 1,14, 0,10, 0.00,60.00,Saturday
141,26404482.457400348
190,0.0
2,14, 1,14, 0,11, 0.00,60.00,Saturday
141,26176809.47372411
190,0.0
2,14, 1,14, 0,12, 0.00,60.00,Saturday
141,25843209.698490713
190,0.0
2,14, 1,14, 0,13, 0.00,60.00,Saturday
141,25272734.315912627
190,0.0
2,14, 1,14, 0,14, 0.00,60.00,Saturday
141,24128048.056218557
190,0.0
2,14, 1,14, 0,15, 0.00,60.00,Saturday
141,23981670.278353527
190,0.0
2,14, 1,14, 0,16, 0.00,60.00,Saturday
141,24238819.619595308
190,0.0
2,14, 1,14, 0,17, 0.00,60.00,Saturday
141,24698672.574020192
190,0.0
2,14, 1,14, 0,18, 0.00,60.00,Saturday
141,25549313.21475487
190,0.0
2,14, 1,14, 0,19, 0.00,60.00,Saturday
141,25569254.181671463
190,0.0
2,14, 1,14, 0,20, 0.00,60.00,Saturday
141,25683683.141294535
190,0.0
2,14, 1,14, 0,21, 0.00,60.00,Saturday
141,25524689.150111325
190,0.0
2,14, 1,14, 0,22, 0.00,60.00,Saturday
141,25230875.133619852
190,0.0
2,14, 1,14, 0,23, 0.00,60.00,Saturday
141,25019157.459165893
190,0.0
2,14, 1,14, 0,24, 0.00,60.00,Saturday
141,24930338.24649968
190,0.0
2,15, 1,15, 0, 1, 0.00,60.00,Sunday
141,24418420.57265117
190,0.0
2,15, 1,15, 0, 2, 0.00,60.00,Sunday
141,23204905.034607325
190,0.0
2,15, 1,15, 0, 3, 0.00,60.00,Sunday
141,22618131.71563198
190,0.0
2,15, 1,15, 0, 4, 0.00,60.00,Sunday
141,22209398.1304209
190,0.0
2,15, 1,15, 0, 5, 0.00,60.00,Sunday
141,21452714.517148625
190,0.0
2,15, 1,15, 0, 6, 0.00,60.00,Sunday
141,20657254.535500366
190,0.0
2,15, 1,15, 0, 7, 0.00,60.00,Sunday
141,19874055.6279171
190,0.0
2,15, 1,15, 0, 8, 0.00,60.00,Sunday
141,19363209.329732955
190,0.0
2,15, 1,15, 0, 9, 0.00,60.00,Sunday
141,18981597.51861772
190,0.0
2,15, 1,15, 0,10, 0.00,60.00,Sunday
141,18946600.94784475
190,0.0
2,15, 1,15, 0,11, 0.00,60.00,Sunday
141,19395338.13460828
190,0.0
2,15, 1,15, 0,12, 0.00,60.00,Sunday
141,20516780.524751768
190,0.0
2,15, 1,15, 0,13, 0.00,60.00,Sunday
141,21351480.762635235
190,0.0
2,15, 1,15, 0,14, 0.00,60.00,Sunday
141,21709678.313779563
190,0.0
2,15, 1,15, 0,15, 0.00,60.00,Sunday
141,21864059.492830515
190,0.0
2,15, 1,15, 0,16, 0.00,60.00,Sunday
141,21614571.67733091
190,0.0
2,15, 1,15, 0,17, 0.00,60.00,Sunday
141,21447161.341510564
190,0.0
2,15, 1,15, 0,18, 0.00,60.00,Sunday
141,21531910.39758455
190,0.0
2,15, 1,15, 0,19, 0.00,60.00,Sunday
141,21728292.48079502
190,0.0
2,15, 1,15, 0,20, 0.00,60.00,Sunday
141,21975494.163784325
190,0.0
2,15, 1,15, 0,21, 0.00,60.00,Sunday
141,22487691.817171954
190,0.0
2,15, 1,15, 0,22, 0.00,60.00,Sunday
141,22718598.168430757
190,0.0
2,15, 1,15, 0,23, 0.00,60.00,Sunday
141,22747839.683435448
190,0.0
2,15, 1,15, 0,24, 0.00,60.00,Sunday
141,22874805.11527523
190,0.0
2,16, 1,16, 0, 1, 0.00,60.00,Monday
141,23335630.89146331
190,0.0
2,16, 1,16, 0, 2, 0.00,60.00,Monday
141,23765720.901429996
190,0.0
2,16, 1,16, 0, 3, 0.00,60.00,Monday
141,24004396.23834059
190,0.0
2,16, 1,16, 0, 4, 0.00,60.00,Monday
141,24176521.181266423
190,0.0
2,16, 1,16, 0, 5, 0.00,60.00,Monday
141,24437145.933718342
190,0.0
2,16, 1,16, 0, 6, 0.00,60.00,Monday
141,24660130.655641112
190,0.0
2,16, 1,16, 0, 7, 0.00,60.00,Monday
141,25125337.23274856
190,0.0
2,16, 1,16, 0, 8, 0.00,60.00,Monday
141,25562138.941673003
190,0.0
2,16, 1,16, 0, 9, 0.00,60.00,Monday
141,25744569.868890084
190,0.0
2,16, 1,16, 0,10, 0.00,60.00,Monday
141,25741154.489236467
190,0.0
2,16, 1,16, 0,11, 0.00,60.00,Monday
141,24743579.4535402
190,0.0
2,16, 1,16, 0,12, 0.00,60.00,Monday
141,23863104.623028293
190,0.0
2,16, 1,16, 0,13, 0.00,60.00,Monday
141,23180598.092575587
190,0.0
2,16, 1,16, 0,14, 0.00,60.00,Monday
141,22731564.172542445
190,0.0
2,16, 1,16, 0,15, 0.00,60.00,Monday
141,22690379.258001864
190,0.0
2,16, 1,16, 0,16, 0.00,60.00,Monday
141,22900477.99828552
190,0.0
2,16, 1,16, 0,17, 0.00,60.00,Monday
141,23399663.011455186
190,0.0
2,16, 1,16, 0,18, 0.00,60.00,Monday
141,24344097.922200304
190,0.0
2,16, 1,16, 0,19, 0.00,60.00,Monday
141,25334565.971949197
190,0.0
2,16, 1,16, 0,20, 0.00,60.00,Monday
141,25836459.324106
190,0.0
2,16, 1,16, 0,21, 0.00,60.00,Monday
141,26231463.306531556
190,0.0
2,16, 1,16, 0,22, 0.00,60.00,Monday
141,26588718.3519964
190,0.0
2,16, 1,16, 0,23, 0.00,60.00,Monday
141,27128475.572230604
190,0.0
2,16, 1,16, 0,24, 0.00,60.00,Monday
141,27243848.606946982
190,0.0
2,17, 1,17, 0, 1, 0.00,60.00,Tuesday
141,27399659.538771614
190,0.0
2,17, 1,17, 0, 2, 0.00,60.00,Tuesday
141,28044574.108071327
190,0.0
2,17, 1,17, 0, 3, 0.00,60.00,Tuesday
141,28577039.926190827
190,0.0
2,17, 1,17, 0, 4, 0.00,60.00,Tuesday
141,29026540.845133025
190,0.0
2,17, 1,17, 0, 5, 0.00,60.00,Tuesday
141,29528768.568130504
190,0.0
2,17, 1,17, 0, 6, 0.00,60.00,Tuesday
141,30033134.89134258
190,0.0
2,17, 1,17, 0, 7, 0.00,60.00,Tuesday
141,30325199.78513012
190,0.0
2,17, 1,17, 0, 8, 0.00,60.00,Tuesday
141,30469920.5418041
190,0.0
2,17, 1,17, 0, 9, 0.00,60.00,Tuesday
141,30479843.05909807
190,0.0
2,17, 1,17, 0,10, 0.00,60.00,Tuesday
141,29322672.796111908
190,0.0
2,17, 1,17, 0,11, 0.00,60.00,Tuesday
141,27628436.15247464
190,0.0
2,17, 1,17, 0,12, 0.00,60.00,Tuesday
141,26168849.61868329
190,0.0
2,17, 1,17, 0,13, 0.00,60.00,Tuesday
141,25320948.732642442
190,0.0
2,17, 1,17, 0,14, 0.00,60.00,Tuesday
141,25145546.630898327
190,0.0
2,17, 1,17, 0,15, 0.00,60.00,Tuesday
141,25441642.892208
190,0.0
2,17, 1,17, 0,16, 0.00,60.00,Tuesday
141,26289276.317136515
190,0.0
2,17, 1,17, 0,17, 0.00,60.00,Tuesday
141,26975680.54034409
190,0.0
2,17, 1,17, 0,18, 0.00,60.00,Tuesday
141,27084718.122244492
190,0.0
2,17, 1,17, 0,19, 0.00,60.00,Tuesday
141,27063749.989827875
190,0.0
2,17, 1,17, 0,20, 0.00,60.00,Tuesday
141,27240641.494785838
190,0.0
2,17, 1,17, 0,21, 0.00,60.00,Tuesday
141,27514383.379418284
190,0.0
2,17, 1,17, 0,22, 0.00,60.00,Tuesday
141,27571664.18304008
190,0.0
2,17, 1,17, 0,23, 0.00,60.00,Tuesday
141,27614401.600831162
190,0.0
2,17, 1,17, 0,24, 0.00,60.00,Tuesday
141,27965679.976155184
190,0.0
2,18, 1,18, 0, 1, 0.00,60.00,Wednesday
141,28183652.65030382
190,0.0
2,18, 1,18, 0, 2, 0.00,60.00,Wednesday
141,28335218.914692484
190,0.0
2,18, 1,18, 0, 3, 0.00,60.00,Wednesday
141,28372369.147534475
190,0.0
2,18, 1,18, 0, 4, 0.00,60.00,Wednesday
141,28328069.89032879
190,0.0
2,18, 1,18, 0, 5, 0.00,60.00,Wednesday
141,28334421.66976334
190,0.0
2,18, 1,18, 0, 6, 0.00,60.00,Wednesday
141,28409374.677260928
190,0.0
2,18, 1,18, 0, 7, 0.00,60.00,Wednesday
141,28955294.680890735
190,0.0
2,18, 1,18, 0, 8, 0.00,60.00,Wednesday
141,29104896.168393042
190,0.0
2,18, 1,18, 0, 9, 0.00,60.00,Wednesday
141,29177373.70239336
190,0.0
2,18, 1,18, 0,10, 0.00,60.00,Wednesday
141,29126101.737256426
190,0.0
2,18, 1,18, 0,11, 0.00,60.00,Wednesday
141,28564627.749216434
190,0.0
2,18, 1,18, 0,12, 0.00,60.00,Wednesday
141,28134412.069760766
190,0.0
2,18, 1,18, 0,13, 0.00,60.00,Wednesday
141,28320848.68963949
190,0.0
2,18, 1,18, 0,14, 0.00,60.00,Wednesday
141,28736011.371275954
190,0.0
2,18, 1,18, 0,15, 0.00,60.00,Wednesday
141,28963690.391189676
190,0.0
2,18, 1,18, 0,16, 0.00,60.00,Wednesday
141,29448545.25960462
190,0.0
2,18, 1,18, 0,17, 0.00,60.00,Wednesday
141,29696122.969389856
190,0.0
2,18, 1,18, 0,18, 0.00,60.00,Wednesday
141,29520686.360502727
190,0.0
2,18, 1,18, 0,19, 0.00,60.00,Wednesday
141,29438176.63406205
190,0.0
2,18, 1,18, 0,20, 0.00,60.00,Wednesday
141,29527295.135773614
190,0.0
2,18, 1,18, 0,21, 0.00,60.00,Wednesday
141,29591245.35546959
190,0.0
2,18, 1,18, 0,22, 0.00,60.00,Wednesday
141,29748580.60251068
190,0.0
2,18, 1,18, 0,23, 0.00,60.00,Wednesday
141,29863091.78607515
190,0.0
2,18, 1,18, 0,24, 0.00,60.00,Wednesday
141,30015653.015887722
190,0.0