Program Version,EnergyPlus, Version 24.2.0-94a887817b, YMD=2025.04.24 13:21
1,5,Environment Title[],Latitude[deg],Longitude[deg],Time Zone[],Elevation[m]
2,8,Day of Simulation[],Month[],Day of Month[],DST Indicator[1=yes 0=no],Hour[],StartMinute[],EndMinute[],DayType
3,5,Cumulative Day of Simulation[],Month[],Day of Month[],DST Indicator[1=yes 0=no],DayType  ! When Daily Report Variables Requested
4,2,Cumulative Days of Simulation[],Month[]  ! When Monthly Report Variables Requested
5,1,Cumulative Days of Simulation[] ! When Run Period Report Variables Requested
6,1,Calendar Year of Simulation[] ! When Annual Report Variables Requested
141,1,ZONE_0599100000349011 IDEAL LOADS AIR SYSTEM,Zone Ideal Loads Supply Air Total Heating Energy [J] !Hourly
190,1,ZONE_0599100000349011 IDEAL LOADS AIR SYSTEM,Zone Ideal Loads Supply Air Total Cooling Energy [J] !Hourly
End of Data Dictionary
1,RUN PERIOD 1,  51.96,   4.45,   1.00,  -4.50
2,1, 1, 1, 0, 1, 0.00,60.00,Sunday
141,26945555.48574504
190,0.0
2,1, 1, 1, 0, 2, 0.00,60.00,Sunday
141,27842038.294765443
190,0.0
2,1, 1, 1, 0, 3, 0.00,60.00,Sunday
141,27835133.307558328
190,0.0
2,1, 1, 1, 0, 4, 0.00,60.00,Sunday
141,28496036.194673996
190,0.0
2,1, 1, 1, 0, 5, 0.00,60.00,Sunday
141,28945848.069724426
190,0.0
2,1, 1, 1, 0, 6, 0.00,60.00,Sunday
141,28995350.990450434
190,0.0
2,1, 1, 1, 0, 7, 0.00,60.00,Sunday
141,29074590.04200689
190,0.0
2,1, 1, 1, 0, 8, 0.00,60.00,Sunday
141,29012907.339396514
190,0.0
2,1, 1, 1, 0, 9, 0.00,60.00,Sunday
141,28958041.839727502
190,0.0
2,1, 1, 1, 0,10, 0.00,60.00,Sunday
141,28743029.390121795
190,0.0
2,1, 1, 1, 0,11, 0.00,60.00,Sunday
141,28191570.96030256
190,0.0
2,1, 1, 1, 0,12, 0.00,60.00,Sunday
141,27300038.281638518
190,0.0
2,1, 1, 1, 0,13, 0.00,60.00,Sunday
141,26862648.26759379
190,0.0
2,1, 1, 1, 0,14, 0.00,60.00,Sunday
141,26260008.426489502
190,0.0
2,1, 1, 1, 0,15, 0.00,60.00,Sunday
141,25843259.568831638
190,0.0
2,1, 1, 1, 0,16, 0.00,60.00,Sunday
141,26256932.925893188
190,0.0
2,1, 1, 1, 0,17, 0.00,60.00,Sunday
141,26777931.597564936
190,0.0
2,1, 1, 1, 0,18, 0.00,60.00,Sunday
141,26947876.56691849
190,0.0
2,1, 1, 1, 0,19, 0.00,60.00,Sunday
141,27098311.47117965
190,0.0
2,1, 1, 1, 0,20, 0.00,60.00,Sunday
141,27077438.177541412
190,0.0
2,1, 1, 1, 0,21, 0.00,60.00,Sunday
141,26998312.634221025
190,0.0
2,1, 1, 1, 0,22, 0.00,60.00,Sunday
141,27059749.06116989
190,0.0
2,1, 1, 1, 0,23, 0.00,60.00,Sunday
141,26442654.408943728
190,0.0
2,1, 1, 1, 0,24, 0.00,60.00,Sunday
141,25984364.080672573
190,0.0
2,2, 1, 2, 0, 1, 0.00,60.00,Monday
141,26069166.611240514
190,0.0
2,2, 1, 2, 0, 2, 0.00,60.00,Monday
141,25444358.480687466
190,0.0
2,2, 1, 2, 0, 3, 0.00,60.00,Monday
141,24964562.406757317
190,0.0
2,2, 1, 2, 0, 4, 0.00,60.00,Monday
141,24478536.542619664
190,0.0
2,2, 1, 2, 0, 5, 0.00,60.00,Monday
141,23414150.29891646
190,0.0
2,2, 1, 2, 0, 6, 0.00,60.00,Monday
141,22909603.966528896
190,0.0
2,2, 1, 2, 0, 7, 0.00,60.00,Monday
141,22117280.29724215
190,0.0
2,2, 1, 2, 0, 8, 0.00,60.00,Monday
141,21152539.54761717
190,0.0
2,2, 1, 2, 0, 9, 0.00,60.00,Monday
141,21462500.465706334
190,0.0
2,2, 1, 2, 0,10, 0.00,60.00,Monday
141,22199158.243637037
190,0.0
2,2, 1, 2, 0,11, 0.00,60.00,Monday
141,22705398.151295245
190,0.0
2,2, 1, 2, 0,12, 0.00,60.00,Monday
141,22305756.49018801
190,0.0
2,2, 1, 2, 0,13, 0.00,60.00,Monday
141,22148988.52482672
190,0.0
2,2, 1, 2, 0,14, 0.00,60.00,Monday
141,22663716.15114718
190,0.0
2,2, 1, 2, 0,15, 0.00,60.00,Monday
141,22884765.02872889
190,0.0
2,2, 1, 2, 0,16, 0.00,60.00,Monday
141,23355778.93770104
190,0.0
2,2, 1, 2, 0,17, 0.00,60.00,Monday
141,23810350.38943439
190,0.0
2,2, 1, 2, 0,18, 0.00,60.00,Monday
141,23880338.27565261
190,0.0
2,2, 1, 2, 0,19, 0.00,60.00,Monday
141,24372192.86044526
190,0.0
2,2, 1, 2, 0,20, 0.00,60.00,Monday
141,24817581.212671783
190,0.0
2,2, 1, 2, 0,21, 0.00,60.00,Monday
141,24866848.774421226
190,0.0
2,2, 1, 2, 0,22, 0.00,60.00,Monday
141,24823077.725011528
190,0.0
2,2, 1, 2, 0,23, 0.00,60.00,Monday
141,24810023.113219123
190,0.0
2,2, 1, 2, 0,24, 0.00,60.00,Monday
141,24806648.49922883
190,0.0
2,3, 1, 3, 0, 1, 0.00,60.00,Tuesday
141,24819748.25678436
190,0.0
2,3, 1, 3, 0, 2, 0.00,60.00,Tuesday
141,24789927.390864715
190,0.0
2,3, 1, 3, 0, 3, 0.00,60.00,Tuesday
141,24746535.99685126
190,0.0
2,3, 1, 3, 0, 4, 0.00,60.00,Tuesday
141,24801457.088235434
190,0.0
2,3, 1, 3, 0, 5, 0.00,60.00,Tuesday
141,25375150.23913889
190,0.0
2,3, 1, 3, 0, 6, 0.00,60.00,Tuesday
141,25741129.668919668
190,0.0
2,3, 1, 3, 0, 7, 0.00,60.00,Tuesday
141,25909254.93417987
190,0.0
2,3, 1, 3, 0, 8, 0.00,60.00,Tuesday
141,25843048.01395303
190,0.0
2,3, 1, 3, 0, 9, 0.00,60.00,Tuesday
141,26315466.85791361
190,0.0
2,3, 1, 3, 0,10, 0.00,60.00,Tuesday
141,26538773.027649306
190,0.0
2,3, 1, 3, 0,11, 0.00,60.00,Tuesday
141,26590108.896269683
190,0.0
2,3, 1, 3, 0,12, 0.00,60.00,Tuesday
141,26730751.54070336
190,0.0
2,3, 1, 3, 0,13, 0.00,60.00,Tuesday
141,27469946.379872438
190,0.0
2,3, 1, 3, 0,14, 0.00,60.00,Tuesday
141,27874356.035922356
190,0.0
2,3, 1, 3, 0,15, 0.00,60.00,Tuesday
141,27781547.82233157
190,0.0
2,3, 1, 3, 0,16, 0.00,60.00,Tuesday
141,27698305.196985386
190,0.0
2,3, 1, 3, 0,17, 0.00,60.00,Tuesday
141,27721670.85163458
190,0.0
2,3, 1, 3, 0,18, 0.00,60.00,Tuesday
141,27781685.8077133
190,0.0
2,3, 1, 3, 0,19, 0.00,60.00,Tuesday
141,27661864.984892905
190,0.0
2,3, 1, 3, 0,20, 0.00,60.00,Tuesday
141,27077206.178441584
190,0.0
2,3, 1, 3, 0,21, 0.00,60.00,Tuesday
141,25497440.881735314
190,0.0
2,3, 1, 3, 0,22, 0.00,60.00,Tuesday
141,24650148.16954382
190,0.0
2,3, 1, 3, 0,23, 0.00,60.00,Tuesday
141,25254890.11256994
190,0.0
2,3, 1, 3, 0,24, 0.00,60.00,Tuesday
141,26286518.83628129
190,0.0
2,4, 1, 4, 0, 1, 0.00,60.00,Wednesday
141,26801155.772896588
190,0.0
2,4, 1, 4, 0, 2, 0.00,60.00,Wednesday
141,26721216.718519438
190,0.0
2,4, 1, 4, 0, 3, 0.00,60.00,Wednesday
141,26566667.45825682
190,0.0
2,4, 1, 4, 0, 4, 0.00,60.00,Wednesday
141,26741120.93829897
190,0.0
2,4, 1, 4, 0, 5, 0.00,60.00,Wednesday
141,27425870.578202248
190,0.0
2,4, 1, 4, 0, 6, 0.00,60.00,Wednesday
141,27245693.350432508
190,0.0
2,4, 1, 4, 0, 7, 0.00,60.00,Wednesday
141,27211820.167902358
190,0.0
2,4, 1, 4, 0, 8, 0.00,60.00,Wednesday
141,27485830.123880874
190,0.0
2,4, 1, 4, 0, 9, 0.00,60.00,Wednesday
141,27683737.229153536
190,0.0
2,4, 1, 4, 0,10, 0.00,60.00,Wednesday
141,27844020.149377264
190,0.0
2,4, 1, 4, 0,11, 0.00,60.00,Wednesday
141,26605297.015704077
190,0.0
2,4, 1, 4, 0,12, 0.00,60.00,Wednesday
141,24508543.578207046
190,0.0
2,4, 1, 4, 0,13, 0.00,60.00,Wednesday
141,23946507.48802276
190,0.0
2,4, 1, 4, 0,14, 0.00,60.00,Wednesday
141,23873095.918340214
190,0.0
2,4, 1, 4, 0,15, 0.00,60.00,Wednesday
141,23675553.604965627
190,0.0
2,4, 1, 4, 0,16, 0.00,60.00,Wednesday
141,24541977.68744062
190,0.0
2,4, 1, 4, 0,17, 0.00,60.00,Wednesday
141,26090509.858926937
190,0.0
2,4, 1, 4, 0,18, 0.00,60.00,Wednesday
141,27432117.155071564
190,0.0
2,4, 1, 4, 0,19, 0.00,60.00,Wednesday
141,28794176.20198235
190,0.0
2,4, 1, 4, 0,20, 0.00,60.00,Wednesday
141,29506085.7491618
190,0.0
2,4, 1, 4, 0,21, 0.00,60.00,Wednesday
141,29822346.686253197
190,0.0
2,4, 1, 4, 0,22, 0.00,60.00,Wednesday
141,30470080.10778542
190,0.0
2,4, 1, 4, 0,23, 0.00,60.00,Wednesday
141,30164739.11221645
190,0.0
2,4, 1, 4, 0,24, 0.00,60.00,Wednesday
141,29659084.193532478
190,0.0
2,5, 1, 5, 0, 1, 0.00,60.00,Thursday
141,29811425.038338147
190,0.0
2,5, 1, 5, 0, 2, 0.00,60.00,Thursday
141,29454457.348710217
190,0.0
2,5, 1, 5, 0, 3, 0.00,60.00,Thursday
141,29111543.54178754
190,0.0
2,5, 1, 5, 0, 4, 0.00,60.00,Thursday
141,29161241.477348316
190,0.0
2,5, 1, 5, 0, 5, 0.00,60.00,Thursday
141,28784704.72640591
190,0.0
2,5, 1, 5, 0, 6, 0.00,60.00,Thursday
141,28627586.634528358
190,0.0
2,5, 1, 5, 0, 7, 0.00,60.00,Thursday
141,28877142.534812845
190,0.0
2,5, 1, 5, 0, 8, 0.00,60.00,Thursday
141,29100589.753742084
190,0.0
2,5, 1, 5, 0, 9, 0.00,60.00,Thursday
141,29187881.14698676
190,0.0
2,5, 1, 5, 0,10, 0.00,60.00,Thursday
141,29604851.603653383
190,0.0
2,5, 1, 5, 0,11, 0.00,60.00,Thursday
141,29508287.854307197
190,0.0
2,5, 1, 5, 0,12, 0.00,60.00,Thursday
141,28618707.39896471
190,0.0
2,5, 1, 5, 0,13, 0.00,60.00,Thursday
141,28314061.040002123
190,0.0
2,5, 1, 5, 0,14, 0.00,60.00,Thursday
141,27679447.465678725
190,0.0
2,5, 1, 5, 0,15, 0.00,60.00,Thursday
141,27178511.023035303
190,0.0
2,5, 1, 5, 0,16, 0.00,60.00,Thursday
141,27609508.553326335
190,0.0
2,5, 1, 5, 0,17, 0.00,60.00,Thursday
141,27516442.248385012
190,0.0
2,5, 1, 5, 0,18, 0.00,60.00,Thursday
141,27249145.585766323
190,0.0
2,5, 1, 5, 0,19, 0.00,60.00,Thursday
141,27416609.142565835
190,0.0
2,5, 1, 5, 0,20, 0.00,60.00,Thursday
141,27396456.721850727
190,0.0
2,5, 1, 5, 0,21, 0.00,60.00,Thursday
141,27312343.292130396
190,0.0
2,5, 1, 5, 0,22, 0.00,60.00,Thursday
141,27342078.650539614
190,0.0
2,5, 1, 5, 0,23, 0.00,60.00,Thursday
141,27488854.587979883
190,0.0
2,5, 1, 5, 0,24, 0.00,60.00,Thursday
141,27647238.494448222
190,0.0
2,6, 1, 6, 0, 1, 0.00,60.00,Friday
141,27754885.43212478
190,0.0
2,6, 1, 6, 0, 2, 0.00,60.00,Friday
141,27857482.453528695
190,0.0
2,6, 1, 6, 0, 3, 0.00,60.00,Friday
141,28464533.36539066
190,0.0
2,6, 1, 6, 0, 4, 0.00,60.00,Friday
141,29051879.505167548
190,0.0
2,6, 1, 6, 0, 5, 0.00,60.00,Friday
141,29361203.00187769
190,0.0
2,6, 1, 6, 0, 6, 0.00,60.00,Friday
141,29735381.685110025
190,0.0
2,6, 1, 6, 0, 7, 0.00,60.00,Friday
141,30284334.58274155
190,0.0
2,6, 1, 6, 0, 8, 0.00,60.00,Friday
141,30802415.018487606
190,0.0
2,6, 1, 6, 0, 9, 0.00,60.00,Friday
141,31424636.267761916
190,0.0
2,6, 1, 6, 0,10, 0.00,60.00,Friday
141,31793672.92638346
190,0.0
2,6, 1, 6, 0,11, 0.00,60.00,Friday
141,31380535.677308124
190,0.0
2,6, 1, 6, 0,12, 0.00,60.00,Friday
141,30734652.142170683
190,0.0
2,6, 1, 6, 0,13, 0.00,60.00,Friday
141,30428129.719635095
190,0.0
2,6, 1, 6, 0,14, 0.00,60.00,Friday
141,30304114.750934392
190,0.0
2,6, 1, 6, 0,15, 0.00,60.00,Friday
141,30130510.474530645
190,0.0
2,6, 1, 6, 0,16, 0.00,60.00,Friday
141,29726506.978446327
190,0.0
2,6, 1, 6, 0,17, 0.00,60.00,Friday
141,29309164.72715718
190,0.0
2,6, 1, 6, 0,18, 0.00,60.00,Friday
141,29111305.66554542
190,0.0
2,6, 1, 6, 0,19, 0.00,60.00,Friday
141,28879980.404255234
190,0.0
2,6, 1, 6, 0,20, 0.00,60.00,Friday
141,28313982.473694306
190,0.0
2,6, 1, 6, 0,21, 0.00,60.00,Friday
141,26894207.028153613
190,0.0
2,6, 1, 6, 0,22, 0.00,60.00,Friday
141,25194474.37857808
190,0.0
2,6, 1, 6, 0,23, 0.00,60.00,Friday
141,24436169.29587644
190,0.0
2,6, 1, 6, 0,24, 0.00,60.00,Friday
141,24606632.16678681
190,0.0
2,7, 1, 7, 0, 1, 0.00,60.00,Saturday
141,25957650.629944507
190,0.0
2,7, 1, 7, 0, 2, 0.00,60.00,Saturday
141,27303973.181007203
190,0.0
2,7, 1, 7, 0, 3, 0.00,60.00,Saturday
141,27113854.282098632
190,0.0
2,7, 1, 7, 0, 4, 0.00,60.00,Saturday
141,27221836.9708778
190,0.0
2,7, 1, 7, 0, 5, 0.00,60.00,Saturday
141,28139690.559815116
190,0.0
2,7, 1, 7, 0, 6, 0.00,60.00,Saturday
141,28856784.1356061
190,0.0
2,7, 1, 7, 0, 7, 0.00,60.00,Saturday
141,29275070.124790415
190,0.0
2,7, 1, 7, 0, 8, 0.00,60.00,Saturday
141,29478320.624719918
190,0.0
2,7, 1, 7, 0, 9, 0.00,60.00,Saturday
141,28958362.065747697
190,0.0
2,7, 1, 7, 0,10, 0.00,60.00,Saturday
141,28491550.959371176
190,0.0
2,7, 1, 7, 0,11, 0.00,60.00,Saturday
141,27133028.316926733
190,0.0
2,7, 1, 7, 0,12, 0.00,60.00,Saturday
141,25765366.67621439
190,0.0
2,7, 1, 7, 0,13, 0.00,60.00,Saturday
141,24775162.87062579
190,0.0
2,7, 1, 7, 0,14, 0.00,60.00,Saturday
141,24284536.298090234
190,0.0
2,7, 1, 7, 0,15, 0.00,60.00,Saturday
141,24522440.915620305
190,0.0
2,7, 1, 7, 0,16, 0.00,60.00,Saturday
141,25006028.076000657
190,0.0
2,7, 1, 7, 0,17, 0.00,60.00,Saturday
141,25415455.587925784
190,0.0
2,7, 1, 7, 0,18, 0.00,60.00,Saturday
141,26105000.317834537
190,0.0
2,7, 1, 7, 0,19, 0.00,60.00,Saturday
141,26747574.105598237
190,0.0
2,7, 1, 7, 0,20, 0.00,60.00,Saturday
141,27362492.344127066
190,0.0
2,7, 1, 7, 0,21, 0.00,60.00,Saturday
141,27798760.4847533
190,0.0
2,7, 1, 7, 0,22, 0.00,60.00,Saturday
141,27818144.9424449
190,0.0
2,7, 1, 7, 0,23, 0.00,60.00,Saturday
141,27890086.41171809
190,0.0
2,7, 1, 7, 0,24, 0.00,60.00,Saturday
141,27840161.453170337
190,0.0
2,8, 1, 8, 0, 1, 0.00,60.00,Sunday
141,27422391.330150217
190,0.0
2,8, 1, 8, 0, 2, 0.00,60.00,Sunday
141,26934382.876989767
190,0.0
2,8, 1, 8, 0, 3, 0.00,60.00,Sunday
141,26490193.20623052
190,0.0
2,8, 1, 8, 0, 4, 0.00,60.00,Sunday
141,25862447.92511321
190,0.0
2,8, 1, 8, 0, 5, 0.00,60.00,Sunday
141,25103439.35532654
190,0.0
2,8, 1, 8, 0, 6, 0.00,60.00,Sunday
141,24531011.03807341
190,0.0
2,8, 1, 8, 0, 7, 0.00,60.00,Sunday
141,24092298.999294784
190,0.0
2,8, 1, 8, 0, 8, 0.00,60.00,Sunday
141,23715921.07862049
190,0.0
2,8, 1, 8, 0, 9, 0.00,60.00,Sunday
141,23324545.69930976
190,0.0
2,8, 1, 8, 0,10, 0.00,60.00,Sunday
141,23194330.55949109
190,0.0
2,8, 1, 8, 0,11, 0.00,60.00,Sunday
141,23094514.088784277
190,0.0
2,8, 1, 8, 0,12, 0.00,60.00,Sunday
141,23167606.190674696
190,0.0
2,8, 1, 8, 0,13, 0.00,60.00,Sunday
141,23093781.631459866
190,0.0
2,8, 1, 8, 0,14, 0.00,60.00,Sunday
141,23182012.929891475
190,0.0
2,8, 1, 8, 0,15, 0.00,60.00,Sunday
141,24010130.609925263
190,0.0
2,8, 1, 8, 0,16, 0.00,60.00,Sunday
141,24606258.15212888
190,0.0
2,8, 1, 8, 0,17, 0.00,60.00,Sunday
141,24633604.147864543
190,0.0
2,8, 1, 8, 0,18, 0.00,60.00,Sunday
141,24894779.756000146
190,0.0
2,8, 1, 8, 0,19, 0.00,60.00,Sunday
141,24746401.615089163
190,0.0
2,8, 1, 8, 0,20, 0.00,60.00,Sunday
141,24238949.572099477
190,0.0
2,8, 1, 8, 0,21, 0.00,60.00,Sunday
141,23871684.25172832
190,0.0
2,8, 1, 8, 0,22, 0.00,60.00,Sunday
141,23967138.453578286
190,0.0
2,8, 1, 8, 0,23, 0.00,60.00,Sunday
141,24055938.052319426
190,0.0
2,8, 1, 8, 0,24, 0.00,60.00,Sunday
141,24345943.458243415
190,0.0
2,9, 1, 9, 0, 1, 0.00,60.00,Monday
141,24395220.39540939
190,0.0
2,9, 1, 9, 0, 2, 0.00,60.00,Monday
141,24421685.66988369
190,0.0
2,9, 1, 9, 0, 3, 0.00,60.00,Monday
141,24341504.55099617
190,0.0
2,9, 1, 9, 0, 4, 0.00,60.00,Monday
141,24151194.153285787
190,0.0
2,9, 1, 9, 0, 5, 0.00,60.00,Monday
141,23733903.391538806
190,0.0
2,9, 1, 9, 0, 6, 0.00,60.00,Monday
141,23312119.185144298
190,0.0
2,9, 1, 9, 0, 7, 0.00,60.00,Monday
141,23006376.489653703
190,0.0
2,9, 1, 9, 0, 8, 0.00,60.00,Monday
141,22838473.11306238
190,0.0
2,9, 1, 9, 0, 9, 0.00,60.00,Monday
141,22387420.156766333
190,0.0
2,9, 1, 9, 0,10, 0.00,60.00,Monday
141,21297750.455501862
190,0.0
2,9, 1, 9, 0,11, 0.00,60.00,Monday
141,20369399.422444474
190,0.0
2,9, 1, 9, 0,12, 0.00,60.00,Monday
141,19855177.245529808
190,0.0
2,9, 1, 9, 0,13, 0.00,60.00,Monday
141,19431245.235451296
190,0.0
2,9, 1, 9, 0,14, 0.00,60.00,Monday
141,19123278.947244737
190,0.0
2,9, 1, 9, 0,15, 0.00,60.00,Monday
141,19018163.18762364
190,0.0
2,9, 1, 9, 0,16, 0.00,60.00,Monday
141,19238025.4141983
190,0.0
2,9, 1, 9, 0,17, 0.00,60.00,Monday
141,19976955.11968445
190,0.0
2,9, 1, 9, 0,18, 0.00,60.00,Monday
141,20673892.447106533
190,0.0
2,9, 1, 9, 0,19, 0.00,60.00,Monday
141,20617864.3105794
190,0.0
2,9, 1, 9, 0,20, 0.00,60.00,Monday
141,19644000.19244296
190,0.0
2,9, 1, 9, 0,21, 0.00,60.00,Monday
141,18659165.08629187
190,0.0
2,9, 1, 9, 0,22, 0.00,60.00,Monday
141,18054034.995596405
190,0.0
2,9, 1, 9, 0,23, 0.00,60.00,Monday
141,17938515.861518122
190,0.0
2,9, 1, 9, 0,24, 0.00,60.00,Monday
141,17996832.941939604
190,0.0
2,10, 1,10, 0, 1, 0.00,60.00,Tuesday
141,18263754.321889047
190,0.0
2,10, 1,10, 0, 2, 0.00,60.00,Tuesday
141,18445460.19460523
190,0.0
2,10, 1,10, 0, 3, 0.00,60.00,Tuesday
141,18475923.69587758
190,0.0
2,10, 1,10, 0, 4, 0.00,60.00,Tuesday
141,18776274.040040188
190,0.0
2,10, 1,10, 0, 5, 0.00,60.00,Tuesday
141,18886734.85450557
190,0.0
2,10, 1,10, 0, 6, 0.00,60.00,Tuesday
141,18923092.785292424
190,0.0
2,10, 1,10, 0, 7, 0.00,60.00,Tuesday
141,18966488.37656974
190,0.0
2,10, 1,10, 0, 8, 0.00,60.00,Tuesday
141,18864197.06999941
190,0.0
2,10, 1,10, 0, 9, 0.00,60.00,Tuesday
141,18715912.56400624
190,0.0
2,10, 1,10, 0,10, 0.00,60.00,Tuesday
141,18512094.92982854
190,0.0
2,10, 1,10, 0,11, 0.00,60.00,Tuesday
141,18211775.154097218
190,0.0
2,10, 1,10, 0,12, 0.00,60.00,Tuesday
141,17866868.645081006
190,0.0
2,10, 1,10, 0,13, 0.00,60.00,Tuesday
141,17812170.487329513
190,0.0
2,10, 1,10, 0,14, 0.00,60.00,Tuesday
141,19083636.84729755
190,0.0
2,10, 1,10, 0,15, 0.00,60.00,Tuesday
141,20110876.23671425
190,0.0
2,10, 1,10, 0,16, 0.00,60.00,Tuesday
141,20742575.74359583
190,0.0
2,10, 1,10, 0,17, 0.00,60.00,Tuesday
141,21391566.392942835
190,0.0
2,10, 1,10, 0,18, 0.00,60.00,Tuesday
141,22232138.573629525
190,0.0
2,10, 1,10, 0,19, 0.00,60.00,Tuesday
141,22672824.087192893
190,0.0
2,10, 1,10, 0,20, 0.00,60.00,Tuesday
141,22999601.563168813
190,0.0
2,10, 1,10, 0,21, 0.00,60.00,Tuesday
141,23520317.79310484
190,0.0
2,10, 1,10, 0,22, 0.00,60.00,Tuesday
141,23810872.296701577
190,0.0
2,10, 1,10, 0,23, 0.00,60.00,Tuesday
141,23606805.939356677
190,0.0
2,10, 1,10, 0,24, 0.00,60.00,Tuesday
141,23938719.851267096
190,0.0
2,11, 1,11, 0, 1, 0.00,60.00,Wednesday
141,23977564.692609437
190,0.0
2,11, 1,11, 0, 2, 0.00,60.00,Wednesday
141,24014551.162620015
190,0.0
2,11, 1,11, 0, 3, 0.00,60.00,Wednesday
141,24187825.392362427
190,0.0
2,11, 1,11, 0, 4, 0.00,60.00,Wednesday
141,23901870.980709255
190,0.0
2,11, 1,11, 0, 5, 0.00,60.00,Wednesday
141,23692047.135511473
190,0.0
2,11, 1,11, 0, 6, 0.00,60.00,Wednesday
141,23602239.18047232
190,0.0
2,11, 1,11, 0, 7, 0.00,60.00,Wednesday
141,23659799.75196017
190,0.0
2,11, 1,11, 0, 8, 0.00,60.00,Wednesday
141,23734494.525677316
190,0.0
2,11, 1,11, 0, 9, 0.00,60.00,Wednesday
141,23670968.061806574
190,0.0
2,11, 1,11, 0,10, 0.00,60.00,Wednesday
141,23513160.990416598
190,0.0
2,11, 1,11, 0,11, 0.00,60.00,Wednesday
141,23252477.596237104
190,0.0
2,11, 1,11, 0,12, 0.00,60.00,Wednesday
141,22829580.21412758
190,0.0
2,11, 1,11, 0,13, 0.00,60.00,Wednesday
141,22504869.879436024
190,0.0
2,11, 1,11, 0,14, 0.00,60.00,Wednesday
141,22369624.112690292
190,0.0
2,11, 1,11, 0,15, 0.00,60.00,Wednesday
141,22338182.380055368
190,0.0
2,11, 1,11, 0,16, 0.00,60.00,Wednesday
141,22355205.254055705
190,0.0
2,11, 1,11, 0,17, 0.00,60.00,Wednesday
141,22132895.08007256
190,0.0
2,11, 1,11, 0,18, 0.00,60.00,Wednesday
141,21920401.31293535
190,0.0
2,11, 1,11, 0,19, 0.00,60.00,Wednesday
141,21775118.82172986
190,0.0
2,11, 1,11, 0,20, 0.00,60.00,Wednesday
141,21764411.747226276
190,0.0
2,11, 1,11, 0,21, 0.00,60.00,Wednesday
141,21762808.39698205
190,0.0
2,11, 1,11, 0,22, 0.00,60.00,Wednesday
141,21309725.047283143
190,0.0
2,11, 1,11, 0,23, 0.00,60.00,Wednesday
141,20960498.03389602
190,0.0
2,11, 1,11, 0,24, 0.00,60.00,Wednesday
141,20991026.192169786
190,0.0
2,12, 1,12, 0, 1, 0.00,60.00,Thursday
141,21163621.74651365
190,0.0
2,12, 1,12, 0, 2, 0.00,60.00,Thursday
141,21191087.018759128
190,0.0
2,12, 1,12, 0, 3, 0.00,60.00,Thursday
141,21088791.901002176
190,0.0
2,12, 1,12, 0, 4, 0.00,60.00,Thursday
141,21109425.16904354
190,0.0
2,12, 1,12, 0, 5, 0.00,60.00,Thursday
141,21274476.686162155
190,0.0
2,12, 1,12, 0, 6, 0.00,60.00,Thursday
141,21656860.361594144
190,0.0
2,12, 1,12, 0, 7, 0.00,60.00,Thursday
141,21865585.54922677
190,0.0
2,12, 1,12, 0, 8, 0.00,60.00,Thursday
141,21919968.663964868
190,0.0
2,12, 1,12, 0, 9, 0.00,60.00,Thursday
141,21658253.08697337
190,0.0
2,12, 1,12, 0,10, 0.00,60.00,Thursday
141,21083965.95881024
190,0.0
2,12, 1,12, 0,11, 0.00,60.00,Thursday
141,20646760.300264843
190,0.0
2,12, 1,12, 0,12, 0.00,60.00,Thursday
141,20397461.108412117
190,0.0
2,12, 1,12, 0,13, 0.00,60.00,Thursday
141,20069644.67224468
190,0.0
2,12, 1,12, 0,14, 0.00,60.00,Thursday
141,19715358.702205703
190,0.0
2,12, 1,12, 0,15, 0.00,60.00,Thursday
141,19703001.17633423
190,0.0
2,12, 1,12, 0,16, 0.00,60.00,Thursday
141,19845278.674659647
190,0.0
2,12, 1,12, 0,17, 0.00,60.00,Thursday
141,20540340.596233092
190,0.0
2,12, 1,12, 0,18, 0.00,60.00,Thursday
141,20946194.026390232
190,0.0
2,12, 1,12, 0,19, 0.00,60.00,Thursday
141,20780346.841918264
190,0.0
2,12, 1,12, 0,20, 0.00,60.00,Thursday
141,20393388.230193373
190,0.0
2,12, 1,12, 0,21, 0.00,60.00,Thursday
141,20234401.21392267
190,0.0
2,12, 1,12, 0,22, 0.00,60.00,Thursday
141,19971991.49634187
190,0.0
2,12, 1,12, 0,23, 0.00,60.00,Thursday
141,19872596.7556181
190,0.0
2,12, 1,12, 0,24, 0.00,60.00,Thursday
141,19890158.50600618
190,0.0
2,13, 1,13, 0, 1, 0.00,60.00,Friday
141,19719019.95759907
190,0.0
2,13, 1,13, 0, 2, 0.00,60.00,Friday
141,19562503.025567237
190,0.0
2,13, 1,13, 0, 3, 0.00,60.00,Friday
141,19329315.580977704
190,0.0
2,13, 1,13, 0, 4, 0.00,60.00,Friday
141,19187992.47374238
190,0.0
2,13, 1,13, 0, 5, 0.00,60.00,Friday
141,19174735.54465231
190,0.0
2,13, 1,13, 0, 6, 0.00,60.00,Friday
141,19221209.584216796
190,0.0
2,13, 1,13, 0, 7, 0.00,60.00,Friday
141,19366776.542346697
190,0.0
2,13, 1,13, 0, 8, 0.00,60.00,Friday
141,19376091.70514823
190,0.0
2,13, 1,13, 0, 9, 0.00,60.00,Friday
141,19202183.019595444
190,0.0
2,13, 1,13, 0,10, 0.00,60.00,Friday
141,19634916.910671454
190,0.0
2,13, 1,13, 0,11, 0.00,60.00,Friday
141,20118983.42747294
190,0.0
2,13, 1,13, 0,12, 0.00,60.00,Friday
141,20148272.446357846
190,0.0
2,13, 1,13, 0,13, 0.00,60.00,Friday
141,20203070.01402317
190,0.0
2,13, 1,13, 0,14, 0.00,60.00,Friday
141,20497416.018354833
190,0.0
2,13, 1,13, 0,15, 0.00,60.00,Friday
141,20653105.09694501
190,0.0
2,13, 1,13, 0,16, 0.00,60.00,Friday
141,20582820.350518614
190,0.0
2,13, 1,13, 0,17, 0.00,60.00,Friday
141,20468065.46957339
190,0.0
2,13, 1,13, 0,18, 0.00,60.00,Friday
141,20407080.438181702
190,0.0
2,13, 1,13, 0,19, 0.00,60.00,Friday
141,20681086.72400644
190,0.0
2,13, 1,13, 0,20, 0.00,60.00,Friday
141,21177039.028262295
190,0.0
2,13, 1,13, 0,21, 0.00,60.00,Friday
141,21619366.754445016
190,0.0
2,13, 1,13, 0,22, 0.00,60.00,Friday
141,21895539.163476314
190,0.0
2,13, 1,13, 0,23, 0.00,60.00,Friday
141,21781470.693458073
190,0.0
2,13, 1,13, 0,24, 0.00,60.00,Friday
141,22953022.828416556
190,0.0
2,14, 1,14, 0, 1, 0.00,60.00,Saturday
141,23756654.24180504
190,0.0
2,14, 1,14, 0, 2, 0.00,60.00,Saturday
141,23409774.640388317
190,0.0
2,14, 1,14, 0, 3, 0.00,60.00,Saturday
141,23470714.58519656
190,0.0
2,14, 1,14, 0, 4, 0.00,60.00,Saturday
141,23335819.70837143
190,0.0
2,14, 1,14, 0, 5, 0.00,60.00,Saturday
141,23292517.51525707
190,0.0
2,14, 1,14, 0, 6, 0.00,60.00,Saturday
141,24145303.187182527
190,0.0
2,14, 1,14, 0, 7, 0.00,60.00,Saturday
141,24783054.463488787
190,0.0
2,14, 1,14, 0, 8, 0.00,60.00,Saturday
141,24560978.329593956
190,0.0
2,14, 1,14, 0, 9, 0.00,60.00,Saturday
141,24892857.588029336
190,0.0
2,14, 1,14, 0,10, 0.00,60.00,Saturday
141,25344473.89567289
190,0.0
2,14, 1,14, 0,11, 0.00,60.00,Saturday
141,25141111.895144824
190,0.0
2,14, 1,14, 0,12, 0.00,60.00,Saturday
141,24844315.299128346
190,0.0
2,14, 1,14, 0,13, 0.00,60.00,Saturday
141,24338081.78413094
190,0.0
2,14, 1,14, 0,14, 0.00,60.00,Saturday
141,23323533.272934206
190,0.0
2,14, 1,14, 0,15, 0.00,60.00,Saturday
141,23194056.288308103
190,0.0
2,14, 1,14, 0,16, 0.00,60.00,Saturday
141,23422650.62122848
190,0.0
2,14, 1,14, 0,17, 0.00,60.00,Saturday
141,23831383.95040107
190,0.0
2,14, 1,14, 0,18, 0.00,60.00,Saturday
141,24586912.545424294
190,0.0
2,14, 1,14, 0,19, 0.00,60.00,Saturday
141,24606896.758268017
190,0.0
2,14, 1,14, 0,20, 0.00,60.00,Saturday
141,24711085.312533796
190,0.0
2,14, 1,14, 0,21, 0.00,60.00,Saturday
141,24573429.658017524
190,0.0
2,14, 1,14, 0,22, 0.00,60.00,Saturday
141,24316673.286432967
190,0.0
2,14, 1,14, 0,23, 0.00,60.00,Saturday
141,24132946.393796954
190,0.0
2,14, 1,14, 0,24, 0.00,60.00,Saturday
141,24058337.154221456
190,0.0
2,15, 1,15, 0, 1, 0.00,60.00,Sunday
141,23609006.190527506
190,0.0
2,15, 1,15, 0, 2, 0.00,60.00,Sunday
141,22538158.406044576
190,0.0
2,15, 1,15, 0, 3, 0.00,60.00,Sunday
141,22022795.765310027
190,0.0
2,15, 1,15, 0, 4, 0.00,60.00,Sunday
141,21665350.773930416
190,0.0
2,15, 1,15, 0, 5, 0.00,60.00,Sunday
141,20999783.518761195
190,0.0
2,15, 1,15, 0, 6, 0.00,60.00,Sunday
141,20300070.415999915
190,0.0
2,15, 1,15, 0, 7, 0.00,60.00,Sunday
141,19611455.465055507
190,0.0
2,15, 1,15, 0, 8, 0.00,60.00,Sunday
141,19164409.752162613
190,0.0
2,15, 1,15, 0, 9, 0.00,60.00,Sunday
141,18832117.758687317
190,0.0
2,15, 1,15, 0,10, 0.00,60.00,Sunday
141,18807176.070093486
190,0.0
2,15, 1,15, 0,11, 0.00,60.00,Sunday
141,19211044.712026216
190,0.0
2,15, 1,15, 0,12, 0.00,60.00,Sunday
141,20211114.00350352
190,0.0
2,15, 1,15, 0,13, 0.00,60.00,Sunday
141,20957179.729835607
190,0.0
2,15, 1,15, 0,14, 0.00,60.00,Sunday
141,21281021.714030873
190,0.0
2,15, 1,15, 0,15, 0.00,60.00,Sunday
141,21424172.982997388
190,0.0
2,15, 1,15, 0,16, 0.00,60.00,Sunday
141,21209281.577395745
190,0.0
2,15, 1,15, 0,17, 0.00,60.00,Sunday
141,21066841.462278757
190,0.0
2,15, 1,15, 0,18, 0.00,60.00,Sunday
141,21147476.15126919
190,0.0
2,15, 1,15, 0,19, 0.00,60.00,Sunday
141,21326599.653274715
190,0.0
2,15, 1,15, 0,20, 0.00,60.00,Sunday
141,21550274.59191027
190,0.0
2,15, 1,15, 0,21, 0.00,60.00,Sunday
141,22008245.694760643
190,0.0
2,15, 1,15, 0,22, 0.00,60.00,Sunday
141,22216452.663109757
190,0.0
2,15, 1,15, 0,23, 0.00,60.00,Sunday
141,22245456.528492935
190,0.0
2,15, 1,15, 0,24, 0.00,60.00,Sunday
141,22360557.711693447
190,0.0
2,16, 1,16, 0, 1, 0.00,60.00,Monday
141,22771022.188854948
190,0.0
2,16, 1,16, 0, 2, 0.00,60.00,Monday
141,23153832.240169547
190,0.0
2,16, 1,16, 0, 3, 0.00,60.00,Monday
141,23366662.17477742
190,0.0
2,16, 1,16, 0, 4, 0.00,60.00,Monday
141,23520204.56332229
190,0.0
2,16, 1,16, 0, 5, 0.00,60.00,Monday
141,23751904.08094243
190,0.0
2,16, 1,16, 0, 6, 0.00,60.00,Monday
141,23950054.32015796
190,0.0
2,16, 1,16, 0, 7, 0.00,60.00,Monday
141,24362696.15747696
190,0.0
2,16, 1,16, 0, 8, 0.00,60.00,Monday
141,24750095.5876198
190,0.0
2,16, 1,16, 0, 9, 0.00,60.00,Monday
141,24912085.674890872
190,0.0
2,16, 1,16, 0,10, 0.00,60.00,Monday
141,24909433.787621215
190,0.0
2,16, 1,16, 0,11, 0.00,60.00,Monday
141,24025959.396946773
190,0.0
2,16, 1,16, 0,12, 0.00,60.00,Monday
141,23246353.46207643
190,0.0
2,16, 1,16, 0,13, 0.00,60.00,Monday
141,22642301.293066397
190,0.0
2,16, 1,16, 0,14, 0.00,60.00,Monday
141,22245288.788516402
190,0.0
2,16, 1,16, 0,15, 0.00,60.00,Monday
141,22209847.791099794
190,0.0
2,16, 1,16, 0,16, 0.00,60.00,Monday
141,22397265.295451276
190,0.0
2,16, 1,16, 0,17, 0.00,60.00,Monday
141,22841038.955739796
190,0.0
2,16, 1,16, 0,18, 0.00,60.00,Monday
141,23679526.94182627
190,0.0
2,16, 1,16, 0,19, 0.00,60.00,Monday
141,24558964.13448334
190,0.0
2,16, 1,16, 0,20, 0.00,60.00,Monday
141,25005607.61975353
190,0.0
2,16, 1,16, 0,21, 0.00,60.00,Monday
141,25357611.21274577
190,0.0
2,16, 1,16, 0,22, 0.00,60.00,Monday
141,25676194.68452708
190,0.0
2,16, 1,16, 0,23, 0.00,60.00,Monday
141,26156479.334486444
190,0.0
2,16, 1,16, 0,24, 0.00,60.00,Monday
141,26260692.82947048
190,0.0
2,17, 1,17, 0, 1, 0.00,60.00,Tuesday
141,26400682.85052173
190,0.0
2,17, 1,17, 0, 2, 0.00,60.00,Tuesday
141,26973992.34853749
190,0.0
2,17, 1,17, 0, 3, 0.00,60.00,Tuesday
141,27447607.67083622
190,0.0
2,17, 1,17, 0, 4, 0.00,60.00,Tuesday
141,27847668.07205798
190,0.0
2,17, 1,17, 0, 5, 0.00,60.00,Tuesday
141,28294429.16261953
190,0.0
2,17, 1,17, 0, 6, 0.00,60.00,Tuesday
141,28743097.30214275
190,0.0
2,17, 1,17, 0, 7, 0.00,60.00,Tuesday
141,29003700.592753705
190,0.0
2,17, 1,17, 0, 8, 0.00,60.00,Tuesday
141,29133837.305615373
190,0.0
2,17, 1,17, 0, 9, 0.00,60.00,Tuesday
141,29144669.44656666
190,0.0
2,17, 1,17, 0,10, 0.00,60.00,Tuesday
141,28121560.26659108
190,0.0
2,17, 1,17, 0,11, 0.00,60.00,Tuesday
141,26622809.65756317
190,0.0
2,17, 1,17, 0,12, 0.00,60.00,Tuesday
141,25332267.042275626
190,0.0
2,17, 1,17, 0,13, 0.00,60.00,Tuesday
141,24584067.66161031
190,0.0
2,17, 1,17, 0,14, 0.00,60.00,Tuesday
141,24432149.575047385
190,0.0
2,17, 1,17, 0,15, 0.00,60.00,Tuesday
141,24698088.801994517
190,0.0
2,17, 1,17, 0,16, 0.00,60.00,Tuesday
141,25453764.672884874
190,0.0
2,17, 1,17, 0,17, 0.00,60.00,Tuesday
141,26066934.539977226
190,0.0
2,17, 1,17, 0,18, 0.00,60.00,Tuesday
141,26169242.67757327
190,0.0
2,17, 1,17, 0,19, 0.00,60.00,Tuesday
141,26156548.51683312
190,0.0
2,17, 1,17, 0,20, 0.00,60.00,Tuesday
141,26319254.53487731
190,0.0
2,17, 1,17, 0,21, 0.00,60.00,Tuesday
141,26567920.3719415
190,0.0
2,17, 1,17, 0,22, 0.00,60.00,Tuesday
141,26624755.90538072
190,0.0
2,17, 1,17, 0,23, 0.00,60.00,Tuesday
141,26668489.924465228
190,0.0
2,17, 1,17, 0,24, 0.00,60.00,Tuesday
141,26985235.44594445
190,0.0
2,18, 1,18, 0, 1, 0.00,60.00,Wednesday
141,27183361.647645824
190,0.0
2,18, 1,18, 0, 2, 0.00,60.00,Wednesday
141,27322072.28338178
190,0.0
2,18, 1,18, 0, 3, 0.00,60.00,Wednesday
141,27358804.711856715
190,0.0
2,18, 1,18, 0, 4, 0.00,60.00,Wednesday
141,27322793.305008806
190,0.0
2,18, 1,18, 0, 5, 0.00,60.00,Wednesday
141,27331149.496205606
190,0.0
2,18, 1,18, 0, 6, 0.00,60.00,Wednesday
141,27399865.939507164
190,0.0
2,18, 1,18, 0, 7, 0.00,60.00,Wednesday
141,27885569.74204679
190,0.0
2,18, 1,18, 0, 8, 0.00,60.00,Wednesday
141,28019891.92711546
190,0.0
2,18, 1,18, 0, 9, 0.00,60.00,Wednesday
141,28085767.212397724
190,0.0
2,18, 1,18, 0,10, 0.00,60.00,Wednesday
141,28041979.971671432
190,0.0
2,18, 1,18, 0,11, 0.00,60.00,Wednesday
141,27546191.250314906
190,0.0
2,18, 1,18, 0,12, 0.00,60.00,Wednesday
141,27166852.61611909
190,0.0
2,18, 1,18, 0,13, 0.00,60.00,Wednesday
141,27334115.65684283
190,0.0
2,18, 1,18, 0,14, 0.00,60.00,Wednesday
141,27704293.991639607
190,0.0
2,18, 1,18, 0,15, 0.00,60.00,Wednesday
141,27908626.932290465
190,0.0
2,18, 1,18, 0,16, 0.00,60.00,Wednesday
141,28341132.769801874
190,0.0
2,18, 1,18, 0,17, 0.00,60.00,Wednesday
141,28563697.261031453
190,0.0
2,18, 1,18, 0,18, 0.00,60.00,Wednesday
141,28411737.30903127
190,0.0
2,18, 1,18, 0,19, 0.00,60.00,Wednesday
141,28342392.82581972
190,0.0
2,18, 1,18, 0,20, 0.00,60.00,Wednesday
141,28425366.241560217
190,0.0
2,18, 1,18, 0,21, 0.00,60.00,Wednesday
141,28486240.50217565
190,0.0
2,18, 1,18, 0,22, 0.00,60.00,Wednesday
141,28630015.625887495
190,0.0
2,18, 1,18, 0,23, 0.00,60.00,Wednesday
141,28735955.92198021
190,0.0
2,18, 1,18, 0,24, 0.00,60.00,Wednesday
141,28875682.04048462
190,0.0