Program Version,EnergyPlus, Version 24.2.0-94a887817b, YMD=2025.04.24 13:21
1,5,Environment Title[],Latitude[deg],Longitude[deg],Time Zone[],Elevation[m]
2,8,Day of Simulation[],Month[],Day of Month[],DST Indicator[1=yes 0=no],Hour[],StartMinute[],EndMinute[],DayType
3,5,Cumulative Day of Simulation[],Month[],Day of Month[],DST Indicator[1=yes 0=no],DayType  ! When Daily Report Variables Requested
4,2,Cumulative Days of Simulation[],Month[]  ! When Monthly Report Variables Requested
5,1,Cumulative Days of Simulation[] ! When Run Period Report Variables Requested
6,1,Calendar Year of Simulation[] ! When Annual Report Variables Requested
141,1,ZONE_0599100000346542 IDEAL LOADS AIR SYSTEM,Zone Ideal Loads Supply Air Total Heating Energy [J] !Hourly
190,1,ZONE_0599100000346542 IDEAL LOADS AIR SYSTEM,Zone Ideal Loads Supply Air Total Cooling Energy [J] !Hourly
End of Data Dictionary
1,RUN PERIOD 1,  51.96,   4.45,   1.00,  -4.50
2,1, 1, 1, 0, 1, 0.00,60.00,Sunday
141,24566232.100916073
190,0.0
2,1, 1, 1, 0, 2, 0.00,60.00,Sunday
141,25475390.73398692
190,0.0
2,1, 1, 1, 0, 3, 0.00,60.00,Sunday
141,25462171.513136815
190,0.0
2,1, 1, 1, 0, 4, 0.00,60.00,Sunday
141,26131337.624255568
190,0.0
2,1, 1, 1, 0, 5, 0.00,60.00,Sunday
141,26585409.395885482
190,0.0
2,1, 1, 1, 0, 6, 0.00,60.00,Sunday
141,26630968.06462633
190,0.0
2,1, 1, 1, 0, 7, 0.00,60.00,Sunday
141,26707035.18536429
190,0.0
2,1, 1, 1, 0, 8, 0.00,60.00,Sunday
141,26639586.624548905
190,0.0
2,1, 1, 1, 0, 9, 0.00,60.00,Sunday
141,26579408.347355098
190,0.0
2,1, 1, 1, 0,10, 0.00,60.00,Sunday
141,26355658.04341765
190,0.0
2,1, 1, 1, 0,11, 0.00,60.00,Sunday
141,25788538.5666332
190,0.0
2,1, 1, 1, 0,12, 0.00,60.00,Sunday
141,24874190.483540747
190,0.0
2,1, 1, 1, 0,13, 0.00,60.00,Sunday
141,24423624.490564417
190,0.0
2,1, 1, 1, 0,14, 0.00,60.00,Sunday
141,23804378.498413935
190,0.0
2,1, 1, 1, 0,15, 0.00,60.00,Sunday
141,23374993.918001138
190,0.0
2,1, 1, 1, 0,16, 0.00,60.00,Sunday
141,23793591.927348554
190,0.0
2,1, 1, 1, 0,17, 0.00,60.00,Sunday
141,24321745.780229688
190,0.0
2,1, 1, 1, 0,18, 0.00,60.00,Sunday
141,24491087.260150723
190,0.0
2,1, 1, 1, 0,19, 0.00,60.00,Sunday
141,24640091.974330295
190,0.0
2,1, 1, 1, 0,20, 0.00,60.00,Sunday
141,24613964.576659948
190,0.0
2,1, 1, 1, 0,21, 0.00,60.00,Sunday
141,24528191.656099275
190,0.0
2,1, 1, 1, 0,22, 0.00,60.00,Sunday
141,24585810.564392477
190,0.0
2,1, 1, 1, 0,23, 0.00,60.00,Sunday
141,23950419.704526715
190,0.0
2,1, 1, 1, 0,24, 0.00,60.00,Sunday
141,23477434.639177054
190,0.0
2,2, 1, 2, 0, 1, 0.00,60.00,Monday
141,23559389.633932017
190,0.0
2,2, 1, 2, 0, 2, 0.00,60.00,Monday
141,22916840.366468254
190,0.0
2,2, 1, 2, 0, 3, 0.00,60.00,Monday
141,22422797.461319532
190,0.0
2,2, 1, 2, 0, 4, 0.00,60.00,Monday
141,21922678.25855455
190,0.0
2,2, 1, 2, 0, 5, 0.00,60.00,Monday
141,20832143.504742816
190,0.0
2,2, 1, 2, 0, 6, 0.00,60.00,Monday
141,20313828.295172762
190,0.0
2,2, 1, 2, 0, 7, 0.00,60.00,Monday
141,19501757.53836606
190,0.0
2,2, 1, 2, 0, 8, 0.00,60.00,Monday
141,18513847.55649285
190,0.0
2,2, 1, 2, 0, 9, 0.00,60.00,Monday
141,18828301.377719026
190,0.0
2,2, 1, 2, 0,10, 0.00,60.00,Monday
141,19578737.4908294
190,0.0
2,2, 1, 2, 0,11, 0.00,60.00,Monday
141,20094060.80154728
190,0.0
2,2, 1, 2, 0,12, 0.00,60.00,Monday
141,19684223.268084623
190,0.0
2,2, 1, 2, 0,13, 0.00,60.00,Monday
141,19522579.773318622
190,0.0
2,2, 1, 2, 0,14, 0.00,60.00,Monday
141,20047245.26195961
190,0.0
2,2, 1, 2, 0,15, 0.00,60.00,Monday
141,20272257.701381702
190,0.0
2,2, 1, 2, 0,16, 0.00,60.00,Monday
141,20752841.60049832
190,0.0
2,2, 1, 2, 0,17, 0.00,60.00,Monday
141,21217186.316689927
190,0.0
2,2, 1, 2, 0,18, 0.00,60.00,Monday
141,21289204.628727064
190,0.0
2,2, 1, 2, 0,19, 0.00,60.00,Monday
141,21792534.861706167
190,0.0
2,2, 1, 2, 0,20, 0.00,60.00,Monday
141,22249077.021788716
190,0.0
2,2, 1, 2, 0,21, 0.00,60.00,Monday
141,22301550.69570505
190,0.0
2,2, 1, 2, 0,22, 0.00,60.00,Monday
141,22259300.37351935
190,0.0
2,2, 1, 2, 0,23, 0.00,60.00,Monday
141,22249008.01160189
190,0.0
2,2, 1, 2, 0,24, 0.00,60.00,Monday
141,22249018.225147523
190,0.0
2,3, 1, 3, 0, 1, 0.00,60.00,Tuesday
141,22265957.860922165
190,0.0
2,3, 1, 3, 0, 2, 0.00,60.00,Tuesday
141,22239382.98676025
190,0.0
2,3, 1, 3, 0, 3, 0.00,60.00,Tuesday
141,22199091.71793089
190,0.0
2,3, 1, 3, 0, 4, 0.00,60.00,Tuesday
141,22259072.614357185
190,0.0
2,3, 1, 3, 0, 5, 0.00,60.00,Tuesday
141,22849033.38312139
190,0.0
2,3, 1, 3, 0, 6, 0.00,60.00,Tuesday
141,23226698.825319633
190,0.0
2,3, 1, 3, 0, 7, 0.00,60.00,Tuesday
141,23401901.347950477
190,0.0
2,3, 1, 3, 0, 8, 0.00,60.00,Tuesday
141,23337575.96015973
190,0.0
2,3, 1, 3, 0, 9, 0.00,60.00,Tuesday
141,23823226.296635725
190,0.0
2,3, 1, 3, 0,10, 0.00,60.00,Tuesday
141,24054004.59843866
190,0.0
2,3, 1, 3, 0,11, 0.00,60.00,Tuesday
141,24108911.841826864
190,0.0
2,3, 1, 3, 0,12, 0.00,60.00,Tuesday
141,24254807.080223862
190,0.0
2,3, 1, 3, 0,13, 0.00,60.00,Tuesday
141,25011803.785939448
190,0.0
2,3, 1, 3, 0,14, 0.00,60.00,Tuesday
141,25426618.47628095
190,0.0
2,3, 1, 3, 0,15, 0.00,60.00,Tuesday
141,25333305.574826285
190,0.0
2,3, 1, 3, 0,16, 0.00,60.00,Tuesday
141,25249500.4013201
190,0.0
2,3, 1, 3, 0,17, 0.00,60.00,Tuesday
141,25274418.832591698
190,0.0
2,3, 1, 3, 0,18, 0.00,60.00,Tuesday
141,25336576.50243569
190,0.0
2,3, 1, 3, 0,19, 0.00,60.00,Tuesday
141,25214764.656207647
190,0.0
2,3, 1, 3, 0,20, 0.00,60.00,Tuesday
141,24617946.520221565
190,0.0
2,3, 1, 3, 0,21, 0.00,60.00,Tuesday
141,23004409.54607104
190,0.0
2,3, 1, 3, 0,22, 0.00,60.00,Tuesday
141,22138820.303325567
190,0.0
2,3, 1, 3, 0,23, 0.00,60.00,Tuesday
141,22756394.132057693
190,0.0
2,3, 1, 3, 0,24, 0.00,60.00,Tuesday
141,23809879.58186164
190,0.0
2,4, 1, 4, 0, 1, 0.00,60.00,Wednesday
141,24334945.911056012
190,0.0
2,4, 1, 4, 0, 2, 0.00,60.00,Wednesday
141,24252571.905019164
190,0.0
2,4, 1, 4, 0, 3, 0.00,60.00,Wednesday
141,24093851.12810794
190,0.0
2,4, 1, 4, 0, 4, 0.00,60.00,Wednesday
141,24270904.712302294
190,0.0
2,4, 1, 4, 0, 5, 0.00,60.00,Wednesday
141,24969201.289064918
190,0.0
2,4, 1, 4, 0, 6, 0.00,60.00,Wednesday
141,24783848.857109725
190,0.0
2,4, 1, 4, 0, 7, 0.00,60.00,Wednesday
141,24747650.3046028
190,0.0
2,4, 1, 4, 0, 8, 0.00,60.00,Wednesday
141,25025974.91336628
190,0.0
2,4, 1, 4, 0, 9, 0.00,60.00,Wednesday
141,25226500.237153336
190,0.0
2,4, 1, 4, 0,10, 0.00,60.00,Wednesday
141,25388310.71478766
190,0.0
2,4, 1, 4, 0,11, 0.00,60.00,Wednesday
141,24121066.552408207
190,0.0
2,4, 1, 4, 0,12, 0.00,60.00,Wednesday
141,21977284.085403197
190,0.0
2,4, 1, 4, 0,13, 0.00,60.00,Wednesday
141,21400943.165042095
190,0.0
2,4, 1, 4, 0,14, 0.00,60.00,Wednesday
141,21323792.69157101
190,0.0
2,4, 1, 4, 0,15, 0.00,60.00,Wednesday
141,21119763.081636935
190,0.0
2,4, 1, 4, 0,16, 0.00,60.00,Wednesday
141,22002227.15832536
190,0.0
2,4, 1, 4, 0,17, 0.00,60.00,Wednesday
141,23581462.153763905
190,0.0
2,4, 1, 4, 0,18, 0.00,60.00,Wednesday
141,24949169.085457847
190,0.0
2,4, 1, 4, 0,19, 0.00,60.00,Wednesday
141,26337335.480361983
190,0.0
2,4, 1, 4, 0,20, 0.00,60.00,Wednesday
141,27061315.24239959
190,0.0
2,4, 1, 4, 0,21, 0.00,60.00,Wednesday
141,27381005.181618683
190,0.0
2,4, 1, 4, 0,22, 0.00,60.00,Wednesday
141,28038941.192075506
190,0.0
2,4, 1, 4, 0,23, 0.00,60.00,Wednesday
141,27723370.615962856
190,0.0
2,4, 1, 4, 0,24, 0.00,60.00,Wednesday
141,27203193.51813067
190,0.0
2,5, 1, 5, 0, 1, 0.00,60.00,Thursday
141,27354957.80535808
190,0.0
2,5, 1, 5, 0, 2, 0.00,60.00,Thursday
141,26986645.142141495
190,0.0
2,5, 1, 5, 0, 3, 0.00,60.00,Thursday
141,26632775.02507519
190,0.0
2,5, 1, 5, 0, 4, 0.00,60.00,Thursday
141,26679767.35029594
190,0.0
2,5, 1, 5, 0, 5, 0.00,60.00,Thursday
141,26291479.218531914
190,0.0
2,5, 1, 5, 0, 6, 0.00,60.00,Thursday
141,26127304.418966323
190,0.0
2,5, 1, 5, 0, 7, 0.00,60.00,Thursday
141,26378222.367540535
190,0.0
2,5, 1, 5, 0, 8, 0.00,60.00,Thursday
141,26602430.40354774
190,0.0
2,5, 1, 5, 0, 9, 0.00,60.00,Thursday
141,26687374.07037272
190,0.0
2,5, 1, 5, 0,10, 0.00,60.00,Thursday
141,27108642.225903604
190,0.0
2,5, 1, 5, 0,11, 0.00,60.00,Thursday
141,27005186.43876108
190,0.0
2,5, 1, 5, 0,12, 0.00,60.00,Thursday
141,26091405.24555284
190,0.0
2,5, 1, 5, 0,13, 0.00,60.00,Thursday
141,25774680.62233679
190,0.0
2,5, 1, 5, 0,14, 0.00,60.00,Thursday
141,25120743.852825742
190,0.0
2,5, 1, 5, 0,15, 0.00,60.00,Thursday
141,24603151.741327222
190,0.0
2,5, 1, 5, 0,16, 0.00,60.00,Thursday
141,25037159.278403364
190,0.0
2,5, 1, 5, 0,17, 0.00,60.00,Thursday
141,24935751.194020864
190,0.0
2,5, 1, 5, 0,18, 0.00,60.00,Thursday
141,24656251.754029144
190,0.0
2,5, 1, 5, 0,19, 0.00,60.00,Thursday
141,24820621.07822588
190,0.0
2,5, 1, 5, 0,20, 0.00,60.00,Thursday
141,24793423.093469158
190,0.0
2,5, 1, 5, 0,21, 0.00,60.00,Thursday
141,24700989.950851172
190,0.0
2,5, 1, 5, 0,22, 0.00,60.00,Thursday
141,24724879.90056773
190,0.0
2,5, 1, 5, 0,23, 0.00,60.00,Thursday
141,24868622.035073232
190,0.0
2,5, 1, 5, 0,24, 0.00,60.00,Thursday
141,25024644.723156635
190,0.0
2,6, 1, 6, 0, 1, 0.00,60.00,Friday
141,25129278.363991663
190,0.0
2,6, 1, 6, 0, 2, 0.00,60.00,Friday
141,25229245.828275714
190,0.0
2,6, 1, 6, 0, 3, 0.00,60.00,Friday
141,25845041.60228353
190,0.0
2,6, 1, 6, 0, 4, 0.00,60.00,Friday
141,26441237.982420105
190,0.0
2,6, 1, 6, 0, 5, 0.00,60.00,Friday
141,26753951.67394369
190,0.0
2,6, 1, 6, 0, 6, 0.00,60.00,Friday
141,27133411.520043444
190,0.0
2,6, 1, 6, 0, 7, 0.00,60.00,Friday
141,27691870.178391613
190,0.0
2,6, 1, 6, 0, 8, 0.00,60.00,Friday
141,28219217.123960618
190,0.0
2,6, 1, 6, 0, 9, 0.00,60.00,Friday
141,28853331.677558135
190,0.0
2,6, 1, 6, 0,10, 0.00,60.00,Friday
141,29229160.636888403
190,0.0
2,6, 1, 6, 0,11, 0.00,60.00,Friday
141,28806280.502958458
190,0.0
2,6, 1, 6, 0,12, 0.00,60.00,Friday
141,28145896.25683201
190,0.0
2,6, 1, 6, 0,13, 0.00,60.00,Friday
141,27832382.24961497
190,0.0
2,6, 1, 6, 0,14, 0.00,60.00,Friday
141,27705450.218964797
190,0.0
2,6, 1, 6, 0,15, 0.00,60.00,Friday
141,27527940.697605334
190,0.0
2,6, 1, 6, 0,16, 0.00,60.00,Friday
141,27115089.298492335
190,0.0
2,6, 1, 6, 0,17, 0.00,60.00,Friday
141,26688560.957319334
190,0.0
2,6, 1, 6, 0,18, 0.00,60.00,Friday
141,26486116.608677126
190,0.0
2,6, 1, 6, 0,19, 0.00,60.00,Friday
141,26249311.5293774
190,0.0
2,6, 1, 6, 0,20, 0.00,60.00,Friday
141,25670428.52188936
190,0.0
2,6, 1, 6, 0,21, 0.00,60.00,Friday
141,24219194.053409234
190,0.0
2,6, 1, 6, 0,22, 0.00,60.00,Friday
141,22481806.600543294
190,0.0
2,6, 1, 6, 0,23, 0.00,60.00,Friday
141,21705987.76536463
190,0.0
2,6, 1, 6, 0,24, 0.00,60.00,Friday
141,21878865.08684362
190,0.0
2,7, 1, 7, 0, 1, 0.00,60.00,Saturday
141,23257689.290589407
190,0.0
2,7, 1, 7, 0, 2, 0.00,60.00,Saturday
141,24631724.262545355
190,0.0
2,7, 1, 7, 0, 3, 0.00,60.00,Saturday
141,24436274.5863679
190,0.0
2,7, 1, 7, 0, 4, 0.00,60.00,Saturday
141,24545382.341923933
190,0.0
2,7, 1, 7, 0, 5, 0.00,60.00,Saturday
141,25481846.25811214
190,0.0
2,7, 1, 7, 0, 6, 0.00,60.00,Saturday
141,26213294.10368988
190,0.0
2,7, 1, 7, 0, 7, 0.00,60.00,Saturday
141,26639593.82177798
190,0.0
2,7, 1, 7, 0, 8, 0.00,60.00,Saturday
141,26846359.02823516
190,0.0
2,7, 1, 7, 0, 9, 0.00,60.00,Saturday
141,26314519.042055294
190,0.0
2,7, 1, 7, 0,10, 0.00,60.00,Saturday
141,25837172.07056184
190,0.0
2,7, 1, 7, 0,11, 0.00,60.00,Saturday
141,24449143.65921493
190,0.0
2,7, 1, 7, 0,12, 0.00,60.00,Saturday
141,23052003.99205984
190,0.0
2,7, 1, 7, 0,13, 0.00,60.00,Saturday
141,22040657.550524138
190,0.0
2,7, 1, 7, 0,14, 0.00,60.00,Saturday
141,21539819.417807847
190,0.0
2,7, 1, 7, 0,15, 0.00,60.00,Saturday
141,21783319.23583991
190,0.0
2,7, 1, 7, 0,16, 0.00,60.00,Saturday
141,22277855.053912114
190,0.0
2,7, 1, 7, 0,17, 0.00,60.00,Saturday
141,22696650.08699845
190,0.0
2,7, 1, 7, 0,18, 0.00,60.00,Saturday
141,23401572.653246436
190,0.0
2,7, 1, 7, 0,19, 0.00,60.00,Saturday
141,24058490.565720137
190,0.0
2,7, 1, 7, 0,20, 0.00,60.00,Saturday
141,24687168.019536406
190,0.0
2,7, 1, 7, 0,21, 0.00,60.00,Saturday
141,25133451.800059352
190,0.0
2,7, 1, 7, 0,22, 0.00,60.00,Saturday
141,25154107.11176364
190,0.0
2,7, 1, 7, 0,23, 0.00,60.00,Saturday
141,25228812.91984514
190,0.0
2,7, 1, 7, 0,24, 0.00,60.00,Saturday
141,25179524.113892056
190,0.0
2,8, 1, 8, 0, 1, 0.00,60.00,Sunday
141,24755064.010894865
190,0.0
2,8, 1, 8, 0, 2, 0.00,60.00,Sunday
141,24259494.266843505
190,0.0
2,8, 1, 8, 0, 3, 0.00,60.00,Sunday
141,23809327.504800238
190,0.0
2,8, 1, 8, 0, 4, 0.00,60.00,Sunday
141,23172246.36898967
190,0.0
2,8, 1, 8, 0, 5, 0.00,60.00,Sunday
141,22401582.47632187
190,0.0
2,8, 1, 8, 0, 6, 0.00,60.00,Sunday
141,21821903.82096261
190,0.0
2,8, 1, 8, 0, 7, 0.00,60.00,Sunday
141,21379080.427449964
190,0.0
2,8, 1, 8, 0, 8, 0.00,60.00,Sunday
141,21000066.77476994
190,0.0
2,8, 1, 8, 0, 9, 0.00,60.00,Sunday
141,20605749.60786131
190,0.0
2,8, 1, 8, 0,10, 0.00,60.00,Sunday
141,20478132.248613037
190,0.0
2,8, 1, 8, 0,11, 0.00,60.00,Sunday
141,20381418.794065543
190,0.0
2,8, 1, 8, 0,12, 0.00,60.00,Sunday
141,20461137.377931364
190,0.0
2,8, 1, 8, 0,13, 0.00,60.00,Sunday
141,20390562.753989756
190,0.0
2,8, 1, 8, 0,14, 0.00,60.00,Sunday
141,20485326.007353343
190,0.0
2,8, 1, 8, 0,15, 0.00,60.00,Sunday
141,21335712.134072203
190,0.0
2,8, 1, 8, 0,16, 0.00,60.00,Sunday
141,21948979.705685537
190,0.0
2,8, 1, 8, 0,17, 0.00,60.00,Sunday
141,21981149.663355198
190,0.0
2,8, 1, 8, 0,18, 0.00,60.00,Sunday
141,22252176.393913515
190,0.0
2,8, 1, 8, 0,19, 0.00,60.00,Sunday
141,22104893.53973131
190,0.0
2,8, 1, 8, 0,20, 0.00,60.00,Sunday
141,21590931.919752378
190,0.0
2,8, 1, 8, 0,21, 0.00,60.00,Sunday
141,21220358.421883516
190,0.0
2,8, 1, 8, 0,22, 0.00,60.00,Sunday
141,21322690.199800283
190,0.0
2,8, 1, 8, 0,23, 0.00,60.00,Sunday
141,21418476.45835086
190,0.0
2,8, 1, 8, 0,24, 0.00,60.00,Sunday
141,21720061.8586865
190,0.0
2,9, 1, 9, 0, 1, 0.00,60.00,Monday
141,21775983.285985526
190,0.0
2,9, 1, 9, 0, 2, 0.00,60.00,Monday
141,21808825.318887644
190,0.0
2,9, 1, 9, 0, 3, 0.00,60.00,Monday
141,21732918.691843204
190,0.0
2,9, 1, 9, 0, 4, 0.00,60.00,Monday
141,21544686.801532142
190,0.0
2,9, 1, 9, 0, 5, 0.00,60.00,Monday
141,21124695.01379071
190,0.0
2,9, 1, 9, 0, 6, 0.00,60.00,Monday
141,20700177.26789883
190,0.0
2,9, 1, 9, 0, 7, 0.00,60.00,Monday
141,20394237.535901736
190,0.0
2,9, 1, 9, 0, 8, 0.00,60.00,Monday
141,20229119.744092233
190,0.0
2,9, 1, 9, 0, 9, 0.00,60.00,Monday
141,19774745.537900344
190,0.0
2,9, 1, 9, 0,10, 0.00,60.00,Monday
141,18667968.7540816
190,0.0
2,9, 1, 9, 0,11, 0.00,60.00,Monday
141,17725941.539189614
190,0.0
2,9, 1, 9, 0,12, 0.00,60.00,Monday
141,17206897.51634874
190,0.0
2,9, 1, 9, 0,13, 0.00,60.00,Monday
141,16780006.531710476
190,0.0
2,9, 1, 9, 0,14, 0.00,60.00,Monday
141,16471497.13371367
190,0.0
2,9, 1, 9, 0,15, 0.00,60.00,Monday
141,16370121.110445596
190,0.0
2,9, 1, 9, 0,16, 0.00,60.00,Monday
141,16600639.049749285
190,0.0
2,9, 1, 9, 0,17, 0.00,60.00,Monday
141,17361348.6915212
190,0.0
2,9, 1, 9, 0,18, 0.00,60.00,Monday
141,18079143.594770763
190,0.0
2,9, 1, 9, 0,19, 0.00,60.00,Monday
141,18027793.99293457
190,0.0
2,9, 1, 9, 0,20, 0.00,60.00,Monday
141,17038929.412937153
190,0.0
2,9, 1, 9, 0,21, 0.00,60.00,Monday
141,16038972.561822489
190,0.0
2,9, 1, 9, 0,22, 0.00,60.00,Monday
141,15427058.78064904
190,0.0
2,9, 1, 9, 0,23, 0.00,60.00,Monday
141,15315515.325515337
190,0.0
2,9, 1, 9, 0,24, 0.00,60.00,Monday
141,15381805.55177815
190,0.0
2,10, 1,10, 0, 1, 0.00,60.00,Tuesday
141,15661470.53769762
190,0.0
2,10, 1,10, 0, 2, 0.00,60.00,Tuesday
141,15854386.869546225
190,0.0
2,10, 1,10, 0, 3, 0.00,60.00,Tuesday
141,15893118.634813564
190,0.0
2,10, 1,10, 0, 4, 0.00,60.00,Tuesday
141,16207877.651024178
190,0.0
2,10, 1,10, 0, 5, 0.00,60.00,Tuesday
141,16329007.897817606
190,0.0
2,10, 1,10, 0, 6, 0.00,60.00,Tuesday
141,16374801.598093674
190,0.0
2,10, 1,10, 0, 7, 0.00,60.00,Tuesday
141,16428173.89662953
190,0.0
2,10, 1,10, 0, 8, 0.00,60.00,Tuesday
141,16333143.44512916
190,0.0
2,10, 1,10, 0, 9, 0.00,60.00,Tuesday
141,16191578.209913824
190,0.0
2,10, 1,10, 0,10, 0.00,60.00,Tuesday
141,15993748.91323384
190,0.0
2,10, 1,10, 0,11, 0.00,60.00,Tuesday
141,15697819.127868772
190,0.0
2,10, 1,10, 0,12, 0.00,60.00,Tuesday
141,15356832.468862154
190,0.0
2,10, 1,10, 0,13, 0.00,60.00,Tuesday
141,15312777.478314018
190,0.0
2,10, 1,10, 0,14, 0.00,60.00,Tuesday
141,16623877.39436957
190,0.0
2,10, 1,10, 0,15, 0.00,60.00,Tuesday
141,17685914.419937406
190,0.0
2,10, 1,10, 0,16, 0.00,60.00,Tuesday
141,18344287.516750034
190,0.0
2,10, 1,10, 0,17, 0.00,60.00,Tuesday
141,19020675.537646774
190,0.0
2,10, 1,10, 0,18, 0.00,60.00,Tuesday
141,19893076.566181485
190,0.0
2,10, 1,10, 0,19, 0.00,60.00,Tuesday
141,20357247.803723052
190,0.0
2,10, 1,10, 0,20, 0.00,60.00,Tuesday
141,20705283.889200397
190,0.0
2,10, 1,10, 0,21, 0.00,60.00,Tuesday
141,21251613.38456437
190,0.0
2,10, 1,10, 0,22, 0.00,60.00,Tuesday
141,21562953.474616244
190,0.0
2,10, 1,10, 0,23, 0.00,60.00,Tuesday
141,21369083.682008788
190,0.0
2,10, 1,10, 0,24, 0.00,60.00,Tuesday
141,21722704.999735028
190,0.0
2,11, 1,11, 0, 1, 0.00,60.00,Wednesday
141,21776831.001112275
190,0.0
2,11, 1,11, 0, 2, 0.00,60.00,Wednesday
141,21828818.41532625
190,0.0
2,11, 1,11, 0, 3, 0.00,60.00,Wednesday
141,22019644.985302318
190,0.0
2,11, 1,11, 0, 4, 0.00,60.00,Wednesday
141,21740829.492091004
190,0.0
2,11, 1,11, 0, 5, 0.00,60.00,Wednesday
141,21539100.576980833
190,0.0
2,11, 1,11, 0, 6, 0.00,60.00,Wednesday
141,21459143.701777834
190,0.0
2,11, 1,11, 0, 7, 0.00,60.00,Wednesday
141,21528773.3280566
190,0.0
2,11, 1,11, 0, 8, 0.00,60.00,Wednesday
141,21614851.684694625
190,0.0
2,11, 1,11, 0, 9, 0.00,60.00,Wednesday
141,21558607.63292585
190,0.0
2,11, 1,11, 0,10, 0.00,60.00,Wednesday
141,21404885.67171023
190,0.0
2,11, 1,11, 0,11, 0.00,60.00,Wednesday
141,21144896.633516442
190,0.0
2,11, 1,11, 0,12, 0.00,60.00,Wednesday
141,20718035.202502977
190,0.0
2,11, 1,11, 0,13, 0.00,60.00,Wednesday
141,20390339.01343799
190,0.0
2,11, 1,11, 0,14, 0.00,60.00,Wednesday
141,20255100.86212541
190,0.0
2,11, 1,11, 0,15, 0.00,60.00,Wednesday
141,20224875.54831129
190,0.0
2,11, 1,11, 0,16, 0.00,60.00,Wednesday
141,20243197.588850573
190,0.0
2,11, 1,11, 0,17, 0.00,60.00,Wednesday
141,20016153.20533129
190,0.0
2,11, 1,11, 0,18, 0.00,60.00,Wednesday
141,19798344.55754436
190,0.0
2,11, 1,11, 0,19, 0.00,60.00,Wednesday
141,19648508.03005455
190,0.0
2,11, 1,11, 0,20, 0.00,60.00,Wednesday
141,19635582.348090135
190,0.0
2,11, 1,11, 0,21, 0.00,60.00,Wednesday
141,19631535.654257167
190,0.0
2,11, 1,11, 0,22, 0.00,60.00,Wednesday
141,19166031.460914593
190,0.0
2,11, 1,11, 0,23, 0.00,60.00,Wednesday
141,18806517.754774652
190,0.0
2,11, 1,11, 0,24, 0.00,60.00,Wednesday
141,18834978.213631906
190,0.0
2,12, 1,12, 0, 1, 0.00,60.00,Thursday
141,19008734.567573436
190,0.0
2,12, 1,12, 0, 2, 0.00,60.00,Thursday
141,19034497.42430491
190,0.0
2,12, 1,12, 0, 3, 0.00,60.00,Thursday
141,18928013.97954133
190,0.0
2,12, 1,12, 0, 4, 0.00,60.00,Thursday
141,18947430.097029187
190,0.0
2,12, 1,12, 0, 5, 0.00,60.00,Thursday
141,19114700.25733217
190,0.0
2,12, 1,12, 0, 6, 0.00,60.00,Thursday
141,19504296.81731607
190,0.0
2,12, 1,12, 0, 7, 0.00,60.00,Thursday
141,19716789.46361842
190,0.0
2,12, 1,12, 0, 8, 0.00,60.00,Thursday
141,19771886.19472974
190,0.0
2,12, 1,12, 0, 9, 0.00,60.00,Thursday
141,19504325.371482037
190,0.0
2,12, 1,12, 0,10, 0.00,60.00,Thursday
141,18917686.118058357
190,0.0
2,12, 1,12, 0,11, 0.00,60.00,Thursday
141,18471280.54204431
190,0.0
2,12, 1,12, 0,12, 0.00,60.00,Thursday
141,18217002.906803362
190,0.0
2,12, 1,12, 0,13, 0.00,60.00,Thursday
141,17882671.563396733
190,0.0
2,12, 1,12, 0,14, 0.00,60.00,Thursday
141,17521426.914332867
190,0.0
2,12, 1,12, 0,15, 0.00,60.00,Thursday
141,17509563.503683414
190,0.0
2,12, 1,12, 0,16, 0.00,60.00,Thursday
141,17655729.09371473
190,0.0
2,12, 1,12, 0,17, 0.00,60.00,Thursday
141,18366617.50033922
190,0.0
2,12, 1,12, 0,18, 0.00,60.00,Thursday
141,18782092.328516178
190,0.0
2,12, 1,12, 0,19, 0.00,60.00,Thursday
141,18613562.710372437
190,0.0
2,12, 1,12, 0,20, 0.00,60.00,Thursday
141,18219149.22813959
190,0.0
2,12, 1,12, 0,21, 0.00,60.00,Thursday
141,18057593.37478207
190,0.0
2,12, 1,12, 0,22, 0.00,60.00,Thursday
141,17790365.696972903
190,0.0
2,12, 1,12, 0,23, 0.00,60.00,Thursday
141,17689636.38559494
190,0.0
2,12, 1,12, 0,24, 0.00,60.00,Thursday
141,17708364.670263644
190,0.0
2,13, 1,13, 0, 1, 0.00,60.00,Friday
141,17534326.03897821
190,0.0
2,13, 1,13, 0, 2, 0.00,60.00,Friday
141,17375231.299950127
190,0.0
2,13, 1,13, 0, 3, 0.00,60.00,Friday
141,17137839.069368057
190,0.0
2,13, 1,13, 0, 4, 0.00,60.00,Friday
141,16994331.36214438
190,0.0
2,13, 1,13, 0, 5, 0.00,60.00,Friday
141,16981710.01410305
190,0.0
2,13, 1,13, 0, 6, 0.00,60.00,Friday
141,17030196.504264027
190,0.0
2,13, 1,13, 0, 7, 0.00,60.00,Friday
141,17180030.953193236
190,0.0
2,13, 1,13, 0, 8, 0.00,60.00,Friday
141,17190833.317781772
190,0.0
2,13, 1,13, 0, 9, 0.00,60.00,Friday
141,17014646.727830864
190,0.0
2,13, 1,13, 0,10, 0.00,60.00,Friday
141,17458363.22532999
190,0.0
2,13, 1,13, 0,11, 0.00,60.00,Friday
141,17954747.816614784
190,0.0
2,13, 1,13, 0,12, 0.00,60.00,Friday
141,17986753.8025208
190,0.0
2,13, 1,13, 0,13, 0.00,60.00,Friday
141,18045169.14143199
190,0.0
2,13, 1,13, 0,14, 0.00,60.00,Friday
141,18348589.299797483
190,0.0
2,13, 1,13, 0,15, 0.00,60.00,Friday
141,18510599.292806774
190,0.0
2,13, 1,13, 0,16, 0.00,60.00,Friday
141,18442043.138986617
190,0.0
2,13, 1,13, 0,17, 0.00,60.00,Friday
141,18328322.526655827
190,0.0
2,13, 1,13, 0,18, 0.00,60.00,Friday
141,18269774.841741282
190,0.0
2,13, 1,13, 0,19, 0.00,60.00,Friday
141,18553645.510416914
190,0.0
2,13, 1,13, 0,20, 0.00,60.00,Friday
141,19064413.066424035
190,0.0
2,13, 1,13, 0,21, 0.00,60.00,Friday
141,19520544.039236646
190,0.0
2,13, 1,13, 0,22, 0.00,60.00,Friday
141,19807058.679447457
190,0.0
2,13, 1,13, 0,23, 0.00,60.00,Friday
141,19695020.232885014
190,0.0
2,13, 1,13, 0,24, 0.00,60.00,Friday
141,20896332.106231138
190,0.0
2,14, 1,14, 0, 1, 0.00,60.00,Saturday
141,21721839.46623499
190,0.0
2,14, 1,14, 0, 2, 0.00,60.00,Saturday
141,21372073.21522995
190,0.0
2,14, 1,14, 0, 3, 0.00,60.00,Saturday
141,21438858.555960327
190,0.0
2,14, 1,14, 0, 4, 0.00,60.00,Saturday
141,21305502.64504695
190,0.0
2,14, 1,14, 0, 5, 0.00,60.00,Saturday
141,21265565.46658887
190,0.0
2,14, 1,14, 0, 6, 0.00,60.00,Saturday
141,22140791.389876757
190,0.0
2,14, 1,14, 0, 7, 0.00,60.00,Saturday
141,22796084.731616728
190,0.0
2,14, 1,14, 0, 8, 0.00,60.00,Saturday
141,22572712.7580129
190,0.0
2,14, 1,14, 0, 9, 0.00,60.00,Saturday
141,22914828.445296217
190,0.0
2,14, 1,14, 0,10, 0.00,60.00,Saturday
141,23378820.305575125
190,0.0
2,14, 1,14, 0,11, 0.00,60.00,Saturday
141,23173249.264988657
190,0.0
2,14, 1,14, 0,12, 0.00,60.00,Saturday
141,22871701.153124593
190,0.0
2,14, 1,14, 0,13, 0.00,60.00,Saturday
141,22355635.47832034
190,0.0
2,14, 1,14, 0,14, 0.00,60.00,Saturday
141,21319706.217406504
190,0.0
2,14, 1,14, 0,15, 0.00,60.00,Saturday
141,21187261.087358683
190,0.0
2,14, 1,14, 0,16, 0.00,60.00,Saturday
141,21419936.33763621
190,0.0
2,14, 1,14, 0,17, 0.00,60.00,Saturday
141,21835954.064921804
190,0.0
2,14, 1,14, 0,18, 0.00,60.00,Saturday
141,22605545.581194237
190,0.0
2,14, 1,14, 0,19, 0.00,60.00,Saturday
141,22623078.22529585
190,0.0
2,14, 1,14, 0,20, 0.00,60.00,Saturday
141,22725970.24130805
190,0.0
2,14, 1,14, 0,21, 0.00,60.00,Saturday
141,22581209.965344604
190,0.0
2,14, 1,14, 0,22, 0.00,60.00,Saturday
141,22314258.83128924
190,0.0
2,14, 1,14, 0,23, 0.00,60.00,Saturday
141,22121469.081720665
190,0.0
2,14, 1,14, 0,24, 0.00,60.00,Saturday
141,22039785.147520807
190,0.0
2,15, 1,15, 0, 1, 0.00,60.00,Sunday
141,21575015.72884077
190,0.0
2,15, 1,15, 0, 2, 0.00,60.00,Sunday
141,20475087.424408957
190,0.0
2,15, 1,15, 0, 3, 0.00,60.00,Sunday
141,19942347.74335154
190,0.0
2,15, 1,15, 0, 4, 0.00,60.00,Sunday
141,19570665.105516616
190,0.0
2,15, 1,15, 0, 5, 0.00,60.00,Sunday
141,18883950.531208728
190,0.0
2,15, 1,15, 0, 6, 0.00,60.00,Sunday
141,18162058.828162853
190,0.0
2,15, 1,15, 0, 7, 0.00,60.00,Sunday
141,17451194.561131086
190,0.0
2,15, 1,15, 0, 8, 0.00,60.00,Sunday
141,16986792.000958696
190,0.0
2,15, 1,15, 0, 9, 0.00,60.00,Sunday
141,16639323.663835108
190,0.0
2,15, 1,15, 0,10, 0.00,60.00,Sunday
141,16605571.047734886
190,0.0
2,15, 1,15, 0,11, 0.00,60.00,Sunday
141,17009657.382727873
190,0.0
2,15, 1,15, 0,12, 0.00,60.00,Sunday
141,18022652.04866794
190,0.0
2,15, 1,15, 0,13, 0.00,60.00,Sunday
141,18776150.441593826
190,0.0
2,15, 1,15, 0,14, 0.00,60.00,Sunday
141,19098411.31322974
190,0.0
2,15, 1,15, 0,15, 0.00,60.00,Sunday
141,19236276.407368634
190,0.0
2,15, 1,15, 0,16, 0.00,60.00,Sunday
141,19008684.588160228
190,0.0
2,15, 1,15, 0,17, 0.00,60.00,Sunday
141,18855504.416970354
190,0.0
2,15, 1,15, 0,18, 0.00,60.00,Sunday
141,18930708.30409125
190,0.0
2,15, 1,15, 0,19, 0.00,60.00,Sunday
141,19107110.86474292
190,0.0
2,15, 1,15, 0,20, 0.00,60.00,Sunday
141,19329670.224809356
190,0.0
2,15, 1,15, 0,21, 0.00,60.00,Sunday
141,19792253.031745706
190,0.0
2,15, 1,15, 0,22, 0.00,60.00,Sunday
141,20000391.282597028
190,0.0
2,15, 1,15, 0,23, 0.00,60.00,Sunday
141,20026149.19885142
190,0.0
2,15, 1,15, 0,24, 0.00,60.00,Sunday
141,20140505.073743172
190,0.0
2,16, 1,16, 0, 1, 0.00,60.00,Monday
141,20557188.040503815
190,0.0
2,16, 1,16, 0, 2, 0.00,60.00,Monday
141,20946173.628820784
190,0.0
2,16, 1,16, 0, 3, 0.00,60.00,Monday
141,21162006.721667867
190,0.0
2,16, 1,16, 0, 4, 0.00,60.00,Monday
141,21317690.304152645
190,0.0
2,16, 1,16, 0, 5, 0.00,60.00,Monday
141,21553549.220282864
190,0.0
2,16, 1,16, 0, 6, 0.00,60.00,Monday
141,21755392.190412782
190,0.0
2,16, 1,16, 0, 7, 0.00,60.00,Monday
141,22176521.20154883
190,0.0
2,16, 1,16, 0, 8, 0.00,60.00,Monday
141,22571968.93084229
190,0.0
2,16, 1,16, 0, 9, 0.00,60.00,Monday
141,22737192.16135125
190,0.0
2,16, 1,16, 0,10, 0.00,60.00,Monday
141,22734218.371072665
190,0.0
2,16, 1,16, 0,11, 0.00,60.00,Monday
141,21831414.231399767
190,0.0
2,16, 1,16, 0,12, 0.00,60.00,Monday
141,21034627.62219341
190,0.0
2,16, 1,16, 0,13, 0.00,60.00,Monday
141,20417055.75565562
190,0.0
2,16, 1,16, 0,14, 0.00,60.00,Monday
141,20010835.32572866
190,0.0
2,16, 1,16, 0,15, 0.00,60.00,Monday
141,19973796.102845136
190,0.0
2,16, 1,16, 0,16, 0.00,60.00,Monday
141,20164214.25082844
190,0.0
2,16, 1,16, 0,17, 0.00,60.00,Monday
141,20616281.424962144
190,0.0
2,16, 1,16, 0,18, 0.00,60.00,Monday
141,21471324.783407122
190,0.0
2,16, 1,16, 0,19, 0.00,60.00,Monday
141,22367973.645293966
190,0.0
2,16, 1,16, 0,20, 0.00,60.00,Monday
141,22822312.305315528
190,0.0
2,16, 1,16, 0,21, 0.00,60.00,Monday
141,23179803.596057642
190,0.0
2,16, 1,16, 0,22, 0.00,60.00,Monday
141,23503023.741312012
190,0.0
2,16, 1,16, 0,23, 0.00,60.00,Monday
141,23991335.020733874
190,0.0
2,16, 1,16, 0,24, 0.00,60.00,Monday
141,24095433.024412215
190,0.0
2,17, 1,17, 0, 1, 0.00,60.00,Tuesday
141,24236063.941659223
190,0.0
2,17, 1,17, 0, 2, 0.00,60.00,Tuesday
141,24819349.19149054
190,0.0
2,17, 1,17, 0, 3, 0.00,60.00,Tuesday
141,25300813.959210068
190,0.0
2,17, 1,17, 0, 4, 0.00,60.00,Tuesday
141,25707153.239253804
190,0.0
2,17, 1,17, 0, 5, 0.00,60.00,Tuesday
141,26161188.0919022
190,0.0
2,17, 1,17, 0, 6, 0.00,60.00,Tuesday
141,26617130.30141379
190,0.0
2,17, 1,17, 0, 7, 0.00,60.00,Tuesday
141,26880882.42923999
190,0.0
2,17, 1,17, 0, 8, 0.00,60.00,Tuesday
141,27011238.91050771
190,0.0
2,17, 1,17, 0, 9, 0.00,60.00,Tuesday
141,27019557.415891875
190,0.0
2,17, 1,17, 0,10, 0.00,60.00,Tuesday
141,25971475.777839437
190,0.0
2,17, 1,17, 0,11, 0.00,60.00,Tuesday
141,24437260.51204082
190,0.0
2,17, 1,17, 0,12, 0.00,60.00,Tuesday
141,23115425.921805345
190,0.0
2,17, 1,17, 0,13, 0.00,60.00,Tuesday
141,22347245.056568313
190,0.0
2,17, 1,17, 0,14, 0.00,60.00,Tuesday
141,22187760.93713266
190,0.0
2,17, 1,17, 0,15, 0.00,60.00,Tuesday
141,22455023.42320173
190,0.0
2,17, 1,17, 0,16, 0.00,60.00,Tuesday
141,23221467.788978934
190,0.0
2,17, 1,17, 0,17, 0.00,60.00,Tuesday
141,23842463.47480492
190,0.0
2,17, 1,17, 0,18, 0.00,60.00,Tuesday
141,23940606.245099947
190,0.0
2,17, 1,17, 0,19, 0.00,60.00,Tuesday
141,23920958.259738524
190,0.0
2,17, 1,17, 0,20, 0.00,60.00,Tuesday
141,24079378.65350737
190,0.0
2,17, 1,17, 0,21, 0.00,60.00,Tuesday
141,24325643.70619215
190,0.0
2,17, 1,17, 0,22, 0.00,60.00,Tuesday
141,24375917.620237526
190,0.0
2,17, 1,17, 0,23, 0.00,60.00,Tuesday
141,24412957.594148308
190,0.0
2,17, 1,17, 0,24, 0.00,60.00,Tuesday
141,24729216.24381875
190,0.0
2,18, 1,18, 0, 1, 0.00,60.00,Wednesday
141,24924788.211441007
190,0.0
2,18, 1,18, 0, 2, 0.00,60.00,Wednesday
141,25060254.104697198
190,0.0
2,18, 1,18, 0, 3, 0.00,60.00,Wednesday
141,25092178.017068245
190,0.0
2,18, 1,18, 0, 4, 0.00,60.00,Wednesday
141,25050411.707409367
190,0.0
2,18, 1,18, 0, 5, 0.00,60.00,Wednesday
141,25054530.235843197
190,0.0
2,18, 1,18, 0, 6, 0.00,60.00,Wednesday
141,25120782.73550921
190,0.0
2,18, 1,18, 0, 7, 0.00,60.00,Wednesday
141,25613363.185004126
190,0.0
2,18, 1,18, 0, 8, 0.00,60.00,Wednesday
141,25747250.422467563
190,0.0
2,18, 1,18, 0, 9, 0.00,60.00,Wednesday
141,25811358.304685343
190,0.0
2,18, 1,18, 0,10, 0.00,60.00,Wednesday
141,25763485.426070273
190,0.0
2,18, 1,18, 0,11, 0.00,60.00,Wednesday
141,25253833.80155068
190,0.0
2,18, 1,18, 0,12, 0.00,60.00,Wednesday
141,24863013.543791886
190,0.0
2,18, 1,18, 0,13, 0.00,60.00,Wednesday
141,25030373.105314504
190,0.0
2,18, 1,18, 0,14, 0.00,60.00,Wednesday
141,25404779.34850577
190,0.0
2,18, 1,18, 0,15, 0.00,60.00,Wednesday
141,25609495.377614796
190,0.0
2,18, 1,18, 0,16, 0.00,60.00,Wednesday
141,26046989.678710476
190,0.0
2,18, 1,18, 0,17, 0.00,60.00,Wednesday
141,26269702.90399159
190,0.0
2,18, 1,18, 0,18, 0.00,60.00,Wednesday
141,26109506.81095982
190,0.0
2,18, 1,18, 0,19, 0.00,60.00,Wednesday
141,26033387.95342325
190,0.0
2,18, 1,18, 0,20, 0.00,60.00,Wednesday
141,26112575.05125824
190,0.0
2,18, 1,18, 0,21, 0.00,60.00,Wednesday
141,26168939.08176669
190,0.0
2,18, 1,18, 0,22, 0.00,60.00,Wednesday
141,26309784.03760285
190,0.0
2,18, 1,18, 0,23, 0.00,60.00,Wednesday
141,26411828.88221575
190,0.0
2,18, 1,18, 0,24, 0.00,60.00,Wednesday
141,26548282.90177565
190,0.0