Program Version,EnergyPlus, Version 24.2.0-94a887817b, YMD=2025.04.24 13:21
1,5,Environment Title[],Latitude[deg],Longitude[deg],Time Zone[],Elevation[m]
2,8,Day of Simulation[],Month[],Day of Month[],DST Indicator[1=yes 0=no],Hour[],StartMinute[],EndMinute[],DayType
3,5,Cumulative Day of Simulation[],Month[],Day of Month[],DST Indicator[1=yes 0=no],DayType  ! When Daily Report Variables Requested
4,2,Cumulative Days of Simulation[],Month[]  ! When Monthly Report Variables Requested
5,1,Cumulative Days of Simulation[] ! When Run Period Report Variables Requested
6,1,Calendar Year of Simulation[] ! When Annual Report Variables Requested
141,1,ZONE_0599100000314582 IDEAL LOADS AIR SYSTEM,Zone Ideal Loads Supply Air Total Heating Energy [J] !Hourly
190,1,ZONE_0599100000314582 IDEAL LOADS AIR SYSTEM,Zone Ideal Loads Supply Air Total Cooling Energy [J] !Hourly
End of Data Dictionary
1,RUN PERIOD 1,  51.96,   4.45,   1.00,  -4.50
2,1, 1, 1, 0, 1, 0.00,60.00,Sunday
141,49851454.94148061
190,0.0
2,1, 1, 1, 0, 2, 0.00,60.00,Sunday
141,51204345.644520074
190,0.0
2,1, 1, 1, 0, 3, 0.00,60.00,Sunday
141,51258166.775310285
190,0.0
2,1, 1, 1, 0, 4, 0.00,60.00,Sunday
141,52286699.480998375
190,0.0
2,1, 1, 1, 0, 5, 0.00,60.00,Sunday
141,53046810.800003506
190,0.0
2,1, 1, 1, 0, 6, 0.00,60.00,Sunday
141,53268830.49502998
190,0.0
2,1, 1, 1, 0, 7, 0.00,60.00,Sunday
141,53565807.13660292
190,0.0
2,1, 1, 1, 0, 8, 0.00,60.00,Sunday
141,53687083.45396525
190,0.0
2,1, 1, 1, 0, 9, 0.00,60.00,Sunday
141,53839014.20814543
190,0.0
2,1, 1, 1, 0,10, 0.00,60.00,Sunday
141,53774441.91618307
190,0.0
2,1, 1, 1, 0,11, 0.00,60.00,Sunday
141,53229599.599720165
190,0.0
2,1, 1, 1, 0,12, 0.00,60.00,Sunday
141,52160248.84405324
190,0.0
2,1, 1, 1, 0,13, 0.00,60.00,Sunday
141,51637681.95895983
190,0.0
2,1, 1, 1, 0,14, 0.00,60.00,Sunday
141,50716687.88584455
190,0.0
2,1, 1, 1, 0,15, 0.00,60.00,Sunday
141,49872707.04802425
190,0.0
2,1, 1, 1, 0,16, 0.00,60.00,Sunday
141,50063513.89818844
190,0.0
2,1, 1, 1, 0,17, 0.00,60.00,Sunday
141,50340542.11653526
190,0.0
2,1, 1, 1, 0,18, 0.00,60.00,Sunday
141,50143773.851062655
190,0.0
2,1, 1, 1, 0,19, 0.00,60.00,Sunday
141,50013802.181679025
190,0.0
2,1, 1, 1, 0,20, 0.00,60.00,Sunday
141,49756351.64865926
190,0.0
2,1, 1, 1, 0,21, 0.00,60.00,Sunday
141,49522523.482069016
190,0.0
2,1, 1, 1, 0,22, 0.00,60.00,Sunday
141,49573224.86698567
190,0.0
2,1, 1, 1, 0,23, 0.00,60.00,Sunday
141,48709182.0761097
190,0.0
2,1, 1, 1, 0,24, 0.00,60.00,Sunday
141,48108919.72353284
190,0.0
2,2, 1, 2, 0, 1, 0.00,60.00,Monday
141,48302686.94067493
190,0.0
2,2, 1, 2, 0, 2, 0.00,60.00,Monday
141,47475395.357688814
190,0.0
2,2, 1, 2, 0, 3, 0.00,60.00,Monday
141,46840731.18474412
190,0.0
2,2, 1, 2, 0, 4, 0.00,60.00,Monday
141,46172404.84862505
190,0.0
2,2, 1, 2, 0, 5, 0.00,60.00,Monday
141,44638897.86134314
190,0.0
2,2, 1, 2, 0, 6, 0.00,60.00,Monday
141,43864886.43254042
190,0.0
2,2, 1, 2, 0, 7, 0.00,60.00,Monday
141,42628268.033361904
190,0.0
2,2, 1, 2, 0, 8, 0.00,60.00,Monday
141,41088454.63620509
190,0.0
2,2, 1, 2, 0, 9, 0.00,60.00,Monday
141,41319109.458168335
190,0.0
2,2, 1, 2, 0,10, 0.00,60.00,Monday
141,42109489.503830194
190,0.0
2,2, 1, 2, 0,11, 0.00,60.00,Monday
141,42526296.923600845
190,0.0
2,2, 1, 2, 0,12, 0.00,60.00,Monday
141,41635201.0305187
190,0.0
2,2, 1, 2, 0,13, 0.00,60.00,Monday
141,41163707.68226703
190,0.0
2,2, 1, 2, 0,14, 0.00,60.00,Monday
141,41770893.53057325
190,0.0
2,2, 1, 2, 0,15, 0.00,60.00,Monday
141,42053787.39841307
190,0.0
2,2, 1, 2, 0,16, 0.00,60.00,Monday
141,42763801.4634498
190,0.0
2,2, 1, 2, 0,17, 0.00,60.00,Monday
141,43509525.02750368
190,0.0
2,2, 1, 2, 0,18, 0.00,60.00,Monday
141,43757228.57519322
190,0.0
2,2, 1, 2, 0,19, 0.00,60.00,Monday
141,44656513.919032715
190,0.0
2,2, 1, 2, 0,20, 0.00,60.00,Monday
141,45527646.51075559
190,0.0
2,2, 1, 2, 0,21, 0.00,60.00,Monday
141,45860282.077687986
190,0.0
2,2, 1, 2, 0,22, 0.00,60.00,Monday
141,46085580.66327621
190,0.0
2,2, 1, 2, 0,23, 0.00,60.00,Monday
141,46378382.231706604
190,0.0
2,2, 1, 2, 0,24, 0.00,60.00,Monday
141,46693455.39372199
190,0.0
2,3, 1, 3, 0, 1, 0.00,60.00,Tuesday
141,47023722.800904356
190,0.0
2,3, 1, 3, 0, 2, 0.00,60.00,Tuesday
141,47276283.86427285
190,0.0
2,3, 1, 3, 0, 3, 0.00,60.00,Tuesday
141,47481411.086043015
190,0.0
2,3, 1, 3, 0, 4, 0.00,60.00,Tuesday
141,47770795.567093335
190,0.0
2,3, 1, 3, 0, 5, 0.00,60.00,Tuesday
141,48732461.70898107
190,0.0
2,3, 1, 3, 0, 6, 0.00,60.00,Tuesday
141,49327935.892401464
190,0.0
2,3, 1, 3, 0, 7, 0.00,60.00,Tuesday
141,49588094.32389519
190,0.0
2,3, 1, 3, 0, 8, 0.00,60.00,Tuesday
141,49477396.47154132
190,0.0
2,3, 1, 3, 0, 9, 0.00,60.00,Tuesday
141,50120548.30919246
190,0.0
2,3, 1, 3, 0,10, 0.00,60.00,Tuesday
141,50396853.28349167
190,0.0
2,3, 1, 3, 0,11, 0.00,60.00,Tuesday
141,50421644.91638303
190,0.0
2,3, 1, 3, 0,12, 0.00,60.00,Tuesday
141,50578957.73579306
190,0.0
2,3, 1, 3, 0,13, 0.00,60.00,Tuesday
141,51626561.74937038
190,0.0
2,3, 1, 3, 0,14, 0.00,60.00,Tuesday
141,52230039.979588374
190,0.0
2,3, 1, 3, 0,15, 0.00,60.00,Tuesday
141,52123101.22716179
190,0.0
2,3, 1, 3, 0,16, 0.00,60.00,Tuesday
141,52011199.20420487
190,0.0
2,3, 1, 3, 0,17, 0.00,60.00,Tuesday
141,52030052.29740262
190,0.0
2,3, 1, 3, 0,18, 0.00,60.00,Tuesday
141,52081395.116966605
190,0.0
2,3, 1, 3, 0,19, 0.00,60.00,Tuesday
141,51859348.99260056
190,0.0
2,3, 1, 3, 0,20, 0.00,60.00,Tuesday
141,50968248.61138858
190,0.0
2,3, 1, 3, 0,21, 0.00,60.00,Tuesday
141,48675136.65467505
190,0.0
2,3, 1, 3, 0,22, 0.00,60.00,Tuesday
141,47501041.88321621
190,0.0
2,3, 1, 3, 0,23, 0.00,60.00,Tuesday
141,48468996.63700109
190,0.0
2,3, 1, 3, 0,24, 0.00,60.00,Tuesday
141,50055934.58353932
190,0.0
2,4, 1, 4, 0, 1, 0.00,60.00,Wednesday
141,50885683.85295426
190,0.0
2,4, 1, 4, 0, 2, 0.00,60.00,Wednesday
141,50881345.13994469
190,0.0
2,4, 1, 4, 0, 3, 0.00,60.00,Wednesday
141,50818883.854493454
190,0.0
2,4, 1, 4, 0, 4, 0.00,60.00,Wednesday
141,51250470.01714746
190,0.0
2,4, 1, 4, 0, 5, 0.00,60.00,Wednesday
141,52397726.36798829
190,0.0
2,4, 1, 4, 0, 6, 0.00,60.00,Wednesday
141,52269800.64570011
190,0.0
2,4, 1, 4, 0, 7, 0.00,60.00,Wednesday
141,52314106.28943266
190,0.0
2,4, 1, 4, 0, 8, 0.00,60.00,Wednesday
141,52770085.25815699
190,0.0
2,4, 1, 4, 0, 9, 0.00,60.00,Wednesday
141,53095295.81954951
190,0.0
2,4, 1, 4, 0,10, 0.00,60.00,Wednesday
141,53358135.4942287
190,0.0
2,4, 1, 4, 0,11, 0.00,60.00,Wednesday
141,51634970.27739866
190,0.0
2,4, 1, 4, 0,12, 0.00,60.00,Wednesday
141,48732618.26916996
190,0.0
2,4, 1, 4, 0,13, 0.00,60.00,Wednesday
141,48063312.39987777
190,0.0
2,4, 1, 4, 0,14, 0.00,60.00,Wednesday
141,48060788.64736876
190,0.0
2,4, 1, 4, 0,15, 0.00,60.00,Wednesday
141,47800151.45602665
190,0.0
2,4, 1, 4, 0,16, 0.00,60.00,Wednesday
141,48990289.547116496
190,0.0
2,4, 1, 4, 0,17, 0.00,60.00,Wednesday
141,51111856.123716615
190,0.0
2,4, 1, 4, 0,18, 0.00,60.00,Wednesday
141,52922163.7009285
190,0.0
2,4, 1, 4, 0,19, 0.00,60.00,Wednesday
141,54788424.96549361
190,0.0
2,4, 1, 4, 0,20, 0.00,60.00,Wednesday
141,55790810.67841464
190,0.0
2,4, 1, 4, 0,21, 0.00,60.00,Wednesday
141,56326018.767635286
190,0.0
2,4, 1, 4, 0,22, 0.00,60.00,Wednesday
141,57443955.66290858
190,0.0
2,4, 1, 4, 0,23, 0.00,60.00,Wednesday
141,57288095.15014038
190,0.0
2,4, 1, 4, 0,24, 0.00,60.00,Wednesday
141,56917685.92062993
190,0.0
2,5, 1, 5, 0, 1, 0.00,60.00,Thursday
141,57530938.661319666
190,0.0
2,5, 1, 5, 0, 2, 0.00,60.00,Thursday
141,57411322.46216546
190,0.0
2,5, 1, 5, 0, 3, 0.00,60.00,Thursday
141,57273598.88312836
190,0.0
2,5, 1, 5, 0, 4, 0.00,60.00,Thursday
141,57636978.38655165
190,0.0
2,5, 1, 5, 0, 5, 0.00,60.00,Thursday
141,57313045.36518209
190,0.0
2,5, 1, 5, 0, 6, 0.00,60.00,Thursday
141,57227041.48693235
190,0.0
2,5, 1, 5, 0, 7, 0.00,60.00,Thursday
141,57653046.87927677
190,0.0
2,5, 1, 5, 0, 8, 0.00,60.00,Thursday
141,57981003.19324906
190,0.0
2,5, 1, 5, 0, 9, 0.00,60.00,Thursday
141,58064268.983720675
190,0.0
2,5, 1, 5, 0,10, 0.00,60.00,Thursday
141,58585637.62364372
190,0.0
2,5, 1, 5, 0,11, 0.00,60.00,Thursday
141,58349852.16773714
190,0.0
2,5, 1, 5, 0,12, 0.00,60.00,Thursday
141,56941087.486295044
190,0.0
2,5, 1, 5, 0,13, 0.00,60.00,Thursday
141,56288919.823373884
190,0.0
2,5, 1, 5, 0,14, 0.00,60.00,Thursday
141,55047226.18936349
190,0.0
2,5, 1, 5, 0,15, 0.00,60.00,Thursday
141,53882064.04763638
190,0.0
2,5, 1, 5, 0,16, 0.00,60.00,Thursday
141,53974475.485370055
190,0.0
2,5, 1, 5, 0,17, 0.00,60.00,Thursday
141,53290131.01820381
190,0.0
2,5, 1, 5, 0,18, 0.00,60.00,Thursday
141,52387095.57607837
190,0.0
2,5, 1, 5, 0,19, 0.00,60.00,Thursday
141,52175757.071745105
190,0.0
2,5, 1, 5, 0,20, 0.00,60.00,Thursday
141,51771799.74342374
190,0.0
2,5, 1, 5, 0,21, 0.00,60.00,Thursday
141,51344437.85289109
190,0.0
2,5, 1, 5, 0,22, 0.00,60.00,Thursday
141,51138547.33885486
190,0.0
2,5, 1, 5, 0,23, 0.00,60.00,Thursday
141,51148096.21562624
190,0.0
2,5, 1, 5, 0,24, 0.00,60.00,Thursday
141,51209655.799942985
190,0.0
2,6, 1, 6, 0, 1, 0.00,60.00,Friday
141,51222891.95269368
190,0.0
2,6, 1, 6, 0, 2, 0.00,60.00,Friday
141,51245422.63055949
190,0.0
2,6, 1, 6, 0, 3, 0.00,60.00,Friday
141,52004873.95463209
190,0.0
2,6, 1, 6, 0, 4, 0.00,60.00,Friday
141,52751029.19761162
190,0.0
2,6, 1, 6, 0, 5, 0.00,60.00,Friday
141,53118633.70479928
190,0.0
2,6, 1, 6, 0, 6, 0.00,60.00,Friday
141,53606613.484501
190,0.0
2,6, 1, 6, 0, 7, 0.00,60.00,Friday
141,54380166.453296445
190,0.0
2,6, 1, 6, 0, 8, 0.00,60.00,Friday
141,55149563.89008343
190,0.0
2,6, 1, 6, 0, 9, 0.00,60.00,Friday
141,56112661.50602928
190,0.0
2,6, 1, 6, 0,10, 0.00,60.00,Friday
141,56762313.75620912
190,0.0
2,6, 1, 6, 0,11, 0.00,60.00,Friday
141,56340875.58095859
190,0.0
2,6, 1, 6, 0,12, 0.00,60.00,Friday
141,55608789.10386396
190,0.0
2,6, 1, 6, 0,13, 0.00,60.00,Friday
141,55324152.41591559
190,0.0
2,6, 1, 6, 0,14, 0.00,60.00,Friday
141,55199981.887259066
190,0.0
2,6, 1, 6, 0,15, 0.00,60.00,Friday
141,54873595.536638826
190,0.0
2,6, 1, 6, 0,16, 0.00,60.00,Friday
141,54103302.843043685
190,0.0
2,6, 1, 6, 0,17, 0.00,60.00,Friday
141,53263537.3717118
190,0.0
2,6, 1, 6, 0,18, 0.00,60.00,Friday
141,52761066.482335806
190,0.0
2,6, 1, 6, 0,19, 0.00,60.00,Friday
141,52283060.7740239
190,0.0
2,6, 1, 6, 0,20, 0.00,60.00,Friday
141,51432308.86455868
190,0.0
2,6, 1, 6, 0,21, 0.00,60.00,Friday
141,49483173.793130726
190,0.0
2,6, 1, 6, 0,22, 0.00,60.00,Friday
141,47203436.45232275
190,0.0
2,6, 1, 6, 0,23, 0.00,60.00,Friday
141,46268793.36132264
190,0.0
2,6, 1, 6, 0,24, 0.00,60.00,Friday
141,46614832.243243575
190,0.0
2,7, 1, 7, 0, 1, 0.00,60.00,Saturday
141,48591749.67003524
190,0.0
2,7, 1, 7, 0, 2, 0.00,60.00,Saturday
141,50514222.49529586
190,0.0
2,7, 1, 7, 0, 3, 0.00,60.00,Saturday
141,50214055.39026074
190,0.0
2,7, 1, 7, 0, 4, 0.00,60.00,Saturday
141,50346861.61095616
190,0.0
2,7, 1, 7, 0, 5, 0.00,60.00,Saturday
141,51657461.97203939
190,0.0
2,7, 1, 7, 0, 6, 0.00,60.00,Saturday
141,52696498.533121035
190,0.0
2,7, 1, 7, 0, 7, 0.00,60.00,Saturday
141,53325719.05693263
190,0.0
2,7, 1, 7, 0, 8, 0.00,60.00,Saturday
141,53674223.17838534
190,0.0
2,7, 1, 7, 0, 9, 0.00,60.00,Saturday
141,53021742.11913749
190,0.0
2,7, 1, 7, 0,10, 0.00,60.00,Saturday
141,52483206.41437721
190,0.0
2,7, 1, 7, 0,11, 0.00,60.00,Saturday
141,50691096.31872663
190,0.0
2,7, 1, 7, 0,12, 0.00,60.00,Saturday
141,48849569.50131676
190,0.0
2,7, 1, 7, 0,13, 0.00,60.00,Saturday
141,47399561.918746054
190,0.0
2,7, 1, 7, 0,14, 0.00,60.00,Saturday
141,46422586.16593265
190,0.0
2,7, 1, 7, 0,15, 0.00,60.00,Saturday
141,46233815.94486879
190,0.0
2,7, 1, 7, 0,16, 0.00,60.00,Saturday
141,46209868.914286256
190,0.0
2,7, 1, 7, 0,17, 0.00,60.00,Saturday
141,46010818.42189543
190,0.0
2,7, 1, 7, 0,18, 0.00,60.00,Saturday
141,46267436.64436662
190,0.0
2,7, 1, 7, 0,19, 0.00,60.00,Saturday
141,46600170.03638856
190,0.0
2,7, 1, 7, 0,20, 0.00,60.00,Saturday
141,47073349.38133614
190,0.0
2,7, 1, 7, 0,21, 0.00,60.00,Saturday
141,47465200.18850758
190,0.0
2,7, 1, 7, 0,22, 0.00,60.00,Saturday
141,47407960.53768174
190,0.0
2,7, 1, 7, 0,23, 0.00,60.00,Saturday
141,47546819.376583435
190,0.0
2,7, 1, 7, 0,24, 0.00,60.00,Saturday
141,47624748.30555667
190,0.0
2,8, 1, 8, 0, 1, 0.00,60.00,Sunday
141,47300474.819052
190,0.0
2,8, 1, 8, 0, 2, 0.00,60.00,Sunday
141,46977330.316540696
190,0.0
2,8, 1, 8, 0, 3, 0.00,60.00,Sunday
141,46770914.93309314
190,0.0
2,8, 1, 8, 0, 4, 0.00,60.00,Sunday
141,46302760.07428168
190,0.0
2,8, 1, 8, 0, 5, 0.00,60.00,Sunday
141,45594977.42163745
190,0.0
2,8, 1, 8, 0, 6, 0.00,60.00,Sunday
141,45067573.65064633
190,0.0
2,8, 1, 8, 0, 7, 0.00,60.00,Sunday
141,44633412.73339918
190,0.0
2,8, 1, 8, 0, 8, 0.00,60.00,Sunday
141,44194906.25201909
190,0.0
2,8, 1, 8, 0, 9, 0.00,60.00,Sunday
141,43650439.45810259
190,0.0
2,8, 1, 8, 0,10, 0.00,60.00,Sunday
141,43408753.583435886
190,0.0
2,8, 1, 8, 0,11, 0.00,60.00,Sunday
141,43152032.001423076
190,0.0
2,8, 1, 8, 0,12, 0.00,60.00,Sunday
141,43095687.382173635
190,0.0
2,8, 1, 8, 0,13, 0.00,60.00,Sunday
141,42793780.32569611
190,0.0
2,8, 1, 8, 0,14, 0.00,60.00,Sunday
141,42709140.37385001
190,0.0
2,8, 1, 8, 0,15, 0.00,60.00,Sunday
141,43698753.02019994
190,0.0
2,8, 1, 8, 0,16, 0.00,60.00,Sunday
141,44387066.99016329
190,0.0
2,8, 1, 8, 0,17, 0.00,60.00,Sunday
141,44304393.543011054
190,0.0
2,8, 1, 8, 0,18, 0.00,60.00,Sunday
141,44623267.41226389
190,0.0
2,8, 1, 8, 0,19, 0.00,60.00,Sunday
141,44425021.421822995
190,0.0
2,8, 1, 8, 0,20, 0.00,60.00,Sunday
141,43757868.49949509
190,0.0
2,8, 1, 8, 0,21, 0.00,60.00,Sunday
141,43316217.7129039
190,0.0
2,8, 1, 8, 0,22, 0.00,60.00,Sunday
141,43558378.86693126
190,0.0
2,8, 1, 8, 0,23, 0.00,60.00,Sunday
141,43798113.90960833
190,0.0
2,8, 1, 8, 0,24, 0.00,60.00,Sunday
141,44323087.92392996
190,0.0
2,9, 1, 9, 0, 1, 0.00,60.00,Monday
141,44500766.6898188
190,0.0
2,9, 1, 9, 0, 2, 0.00,60.00,Monday
141,44649456.847394995
190,0.0
2,9, 1, 9, 0, 3, 0.00,60.00,Monday
141,44652516.86937121
190,0.0
2,9, 1, 9, 0, 4, 0.00,60.00,Monday
141,44494994.407521084
190,0.0
2,9, 1, 9, 0, 5, 0.00,60.00,Monday
141,43992824.50400836
190,0.0
2,9, 1, 9, 0, 6, 0.00,60.00,Monday
141,43451579.006015435
190,0.0
2,9, 1, 9, 0, 7, 0.00,60.00,Monday
141,43039224.87666976
190,0.0
2,9, 1, 9, 0, 8, 0.00,60.00,Monday
141,42783614.76645999
190,0.0
2,9, 1, 9, 0, 9, 0.00,60.00,Monday
141,42083811.25806004
190,0.0
2,9, 1, 9, 0,10, 0.00,60.00,Monday
141,40442198.77200182
190,0.0
2,9, 1, 9, 0,11, 0.00,60.00,Monday
141,39024103.40432881
190,0.0
2,9, 1, 9, 0,12, 0.00,60.00,Monday
141,38183323.07616291
190,0.0
2,9, 1, 9, 0,13, 0.00,60.00,Monday
141,37428116.92066784
190,0.0
2,9, 1, 9, 0,14, 0.00,60.00,Monday
141,36782369.95662305
190,0.0
2,9, 1, 9, 0,15, 0.00,60.00,Monday
141,36382950.40449913
190,0.0
2,9, 1, 9, 0,16, 0.00,60.00,Monday
141,36432411.25821541
190,0.0
2,9, 1, 9, 0,17, 0.00,60.00,Monday
141,37239037.64619118
190,0.0
2,9, 1, 9, 0,18, 0.00,60.00,Monday
141,38019822.7715469
190,0.0
2,9, 1, 9, 0,19, 0.00,60.00,Monday
141,37765467.64669727
190,0.0
2,9, 1, 9, 0,20, 0.00,60.00,Monday
141,36233654.001224436
190,0.0
2,9, 1, 9, 0,21, 0.00,60.00,Monday
141,34699095.29959883
190,0.0
2,9, 1, 9, 0,22, 0.00,60.00,Monday
141,33692380.00894642
190,0.0
2,9, 1, 9, 0,23, 0.00,60.00,Monday
141,33343934.08399804
190,0.0
2,9, 1, 9, 0,24, 0.00,60.00,Monday
141,33188902.26023304
190,0.0
2,10, 1,10, 0, 1, 0.00,60.00,Tuesday
141,33282575.777380772
190,0.0
2,10, 1,10, 0, 2, 0.00,60.00,Tuesday
141,33225941.845523015
190,0.0
2,10, 1,10, 0, 3, 0.00,60.00,Tuesday
141,32947592.13753256
190,0.0
2,10, 1,10, 0, 4, 0.00,60.00,Tuesday
141,33064367.50435187
190,0.0
2,10, 1,10, 0, 5, 0.00,60.00,Tuesday
141,32924746.101079654
190,0.0
2,10, 1,10, 0, 6, 0.00,60.00,Tuesday
141,32704415.053568963
190,0.0
2,10, 1,10, 0, 7, 0.00,60.00,Tuesday
141,32528224.434404057
190,0.0
2,10, 1,10, 0, 8, 0.00,60.00,Tuesday
141,32177575.194331862
190,0.0
2,10, 1,10, 0, 9, 0.00,60.00,Tuesday
141,31791095.820293877
190,0.0
2,10, 1,10, 0,10, 0.00,60.00,Tuesday
141,31350957.14424226
190,0.0
2,10, 1,10, 0,11, 0.00,60.00,Tuesday
141,30794106.712743636
190,0.0
2,10, 1,10, 0,12, 0.00,60.00,Tuesday
141,30186356.37636393
190,0.0
2,10, 1,10, 0,13, 0.00,60.00,Tuesday
141,29996735.464548633
190,0.0
2,10, 1,10, 0,14, 0.00,60.00,Tuesday
141,31714239.03863821
190,0.0
2,10, 1,10, 0,15, 0.00,60.00,Tuesday
141,33109897.610088088
190,0.0
2,10, 1,10, 0,16, 0.00,60.00,Tuesday
141,33995274.52154809
190,0.0
2,10, 1,10, 0,17, 0.00,60.00,Tuesday
141,34990292.03999354
190,0.0
2,10, 1,10, 0,18, 0.00,60.00,Tuesday
141,36351165.509121396
190,0.0
2,10, 1,10, 0,19, 0.00,60.00,Tuesday
141,37261382.755384855
190,0.0
2,10, 1,10, 0,20, 0.00,60.00,Tuesday
141,38154537.61278357
190,0.0
2,10, 1,10, 0,21, 0.00,60.00,Tuesday
141,39467565.757281974
190,0.0
2,10, 1,10, 0,22, 0.00,60.00,Tuesday
141,40556195.05116168
190,0.0
2,10, 1,10, 0,23, 0.00,60.00,Tuesday
141,41004988.59523699
190,0.0
2,10, 1,10, 0,24, 0.00,60.00,Tuesday
141,42264492.77821113
190,0.0
2,11, 1,11, 0, 1, 0.00,60.00,Wednesday
141,43119898.76006544
190,0.0
2,11, 1,11, 0, 2, 0.00,60.00,Wednesday
141,43963891.15303772
190,0.0
2,11, 1,11, 0, 3, 0.00,60.00,Wednesday
141,44964267.839359336
190,0.0
2,11, 1,11, 0, 4, 0.00,60.00,Wednesday
141,45221214.01256677
190,0.0
2,11, 1,11, 0, 5, 0.00,60.00,Wednesday
141,45475294.78103012
190,0.0
2,11, 1,11, 0, 6, 0.00,60.00,Wednesday
141,45791914.830138795
190,0.0
2,11, 1,11, 0, 7, 0.00,60.00,Wednesday
141,46223666.446395464
190,0.0
2,11, 1,11, 0, 8, 0.00,60.00,Wednesday
141,46599057.84105485
190,0.0
2,11, 1,11, 0, 9, 0.00,60.00,Wednesday
141,46711803.92610236
190,0.0
2,11, 1,11, 0,10, 0.00,60.00,Wednesday
141,46642616.51083746
190,0.0
2,11, 1,11, 0,11, 0.00,60.00,Wednesday
141,46386275.36471604
190,0.0
2,11, 1,11, 0,12, 0.00,60.00,Wednesday
141,45831402.37254845
190,0.0
2,11, 1,11, 0,13, 0.00,60.00,Wednesday
141,45296692.04637307
190,0.0
2,11, 1,11, 0,14, 0.00,60.00,Wednesday
141,44877388.33479046
190,0.0
2,11, 1,11, 0,15, 0.00,60.00,Wednesday
141,44454325.93021739
190,0.0
2,11, 1,11, 0,16, 0.00,60.00,Wednesday
141,43987113.57167363
190,0.0
2,11, 1,11, 0,17, 0.00,60.00,Wednesday
141,43130781.78990038
190,0.0
2,11, 1,11, 0,18, 0.00,60.00,Wednesday
141,42319543.50408135
190,0.0
2,11, 1,11, 0,19, 0.00,60.00,Wednesday
141,41695203.90103013
190,0.0
2,11, 1,11, 0,20, 0.00,60.00,Wednesday
141,41375522.49269823
190,0.0
2,11, 1,11, 0,21, 0.00,60.00,Wednesday
141,41169871.374577604
190,0.0
2,11, 1,11, 0,22, 0.00,60.00,Wednesday
141,40390791.766705625
190,0.0
2,11, 1,11, 0,23, 0.00,60.00,Wednesday
141,39808879.540604495
190,0.0
2,11, 1,11, 0,24, 0.00,60.00,Wednesday
141,39797348.33784011
190,0.0
2,12, 1,12, 0, 1, 0.00,60.00,Thursday
141,39996733.44384774
190,0.0
2,12, 1,12, 0, 2, 0.00,60.00,Thursday
141,39986027.536200136
190,0.0
2,12, 1,12, 0, 3, 0.00,60.00,Thursday
141,39789925.74289298
190,0.0
2,12, 1,12, 0, 4, 0.00,60.00,Thursday
141,39776803.576266155
190,0.0
2,12, 1,12, 0, 5, 0.00,60.00,Thursday
141,39978592.31499926
190,0.0
2,12, 1,12, 0, 6, 0.00,60.00,Thursday
141,40496845.133375056
190,0.0
2,12, 1,12, 0, 7, 0.00,60.00,Thursday
141,40768498.17145898
190,0.0
2,12, 1,12, 0, 8, 0.00,60.00,Thursday
141,40822221.619298525
190,0.0
2,12, 1,12, 0, 9, 0.00,60.00,Thursday
141,40428328.301961735
190,0.0
2,12, 1,12, 0,10, 0.00,60.00,Thursday
141,39591550.379596934
190,0.0
2,12, 1,12, 0,11, 0.00,60.00,Thursday
141,38953293.24750412
190,0.0
2,12, 1,12, 0,12, 0.00,60.00,Thursday
141,38590440.53873792
190,0.0
2,12, 1,12, 0,13, 0.00,60.00,Thursday
141,38139249.9246246
190,0.0
2,12, 1,12, 0,14, 0.00,60.00,Thursday
141,37677542.71208445
190,0.0
2,12, 1,12, 0,15, 0.00,60.00,Thursday
141,37719995.09133955
190,0.0
2,12, 1,12, 0,16, 0.00,60.00,Thursday
141,37982327.404708095
190,0.0
2,12, 1,12, 0,17, 0.00,60.00,Thursday
141,39024800.378153525
190,0.0
2,12, 1,12, 0,18, 0.00,60.00,Thursday
141,39637365.39361997
190,0.0
2,12, 1,12, 0,19, 0.00,60.00,Thursday
141,39420717.103138104
190,0.0
2,12, 1,12, 0,20, 0.00,60.00,Thursday
141,38882760.15202417
190,0.0
2,12, 1,12, 0,21, 0.00,60.00,Thursday
141,38661911.68553421
190,0.0
2,12, 1,12, 0,22, 0.00,60.00,Thursday
141,38264159.90638436
190,0.0
2,12, 1,12, 0,23, 0.00,60.00,Thursday
141,38058612.429550685
190,0.0
2,12, 1,12, 0,24, 0.00,60.00,Thursday
141,37981231.51055073
190,0.0
2,13, 1,13, 0, 1, 0.00,60.00,Friday
141,37600167.03467646
190,0.0
2,13, 1,13, 0, 2, 0.00,60.00,Friday
141,37216588.855093576
190,0.0
2,13, 1,13, 0, 3, 0.00,60.00,Friday
141,36707933.85734535
190,0.0
2,13, 1,13, 0, 4, 0.00,60.00,Friday
141,36322322.46701326
190,0.0
2,13, 1,13, 0, 5, 0.00,60.00,Friday
141,36114823.74000025
190,0.0
2,13, 1,13, 0, 6, 0.00,60.00,Friday
141,35992239.74551503
190,0.0
2,13, 1,13, 0, 7, 0.00,60.00,Friday
141,36028895.12284412
190,0.0
2,13, 1,13, 0, 8, 0.00,60.00,Friday
141,35892840.236140035
190,0.0
2,13, 1,13, 0, 9, 0.00,60.00,Friday
141,35506017.18630672
190,0.0
2,13, 1,13, 0,10, 0.00,60.00,Friday
141,36006556.131585486
190,0.0
2,13, 1,13, 0,11, 0.00,60.00,Friday
141,36610748.49529802
190,0.0
2,13, 1,13, 0,12, 0.00,60.00,Friday
141,36597861.02725451
190,0.0
2,13, 1,13, 0,13, 0.00,60.00,Friday
141,36663670.24115091
190,0.0
2,13, 1,13, 0,14, 0.00,60.00,Friday
141,37115098.64903749
190,0.0
2,13, 1,13, 0,15, 0.00,60.00,Friday
141,37405333.790640384
190,0.0
2,13, 1,13, 0,16, 0.00,60.00,Friday
141,37401767.5219366
190,0.0
2,13, 1,13, 0,17, 0.00,60.00,Friday
141,37336555.696036234
190,0.0
2,13, 1,13, 0,18, 0.00,60.00,Friday
141,37311773.72573963
190,0.0
2,13, 1,13, 0,19, 0.00,60.00,Friday
141,37731013.77632365
190,0.0
2,13, 1,13, 0,20, 0.00,60.00,Friday
141,38459580.295279115
190,0.0
2,13, 1,13, 0,21, 0.00,60.00,Friday
141,39148500.57991582
190,0.0
2,13, 1,13, 0,22, 0.00,60.00,Friday
141,39689947.986044094
190,0.0
2,13, 1,13, 0,23, 0.00,60.00,Friday
141,39774733.41676615
190,0.0
2,13, 1,13, 0,24, 0.00,60.00,Friday
141,41776998.59581677
190,0.0
2,14, 1,14, 0, 1, 0.00,60.00,Saturday
141,43281421.16129181
190,0.0
2,14, 1,14, 0, 2, 0.00,60.00,Saturday
141,43120719.73781419
190,0.0
2,14, 1,14, 0, 3, 0.00,60.00,Saturday
141,43509091.84146456
190,0.0
2,14, 1,14, 0, 4, 0.00,60.00,Saturday
141,43580378.586059935
190,0.0
2,14, 1,14, 0, 5, 0.00,60.00,Saturday
141,43753362.90110225
190,0.0
2,14, 1,14, 0, 6, 0.00,60.00,Saturday
141,45213865.77837963
190,0.0
2,14, 1,14, 0, 7, 0.00,60.00,Saturday
141,46412822.12827956
190,0.0
2,14, 1,14, 0, 8, 0.00,60.00,Saturday
141,46442492.92841436
190,0.0
2,14, 1,14, 0, 9, 0.00,60.00,Saturday
141,47326074.38941822
190,0.0
2,14, 1,14, 0,10, 0.00,60.00,Saturday
141,48414166.98426657
190,0.0
2,14, 1,14, 0,11, 0.00,60.00,Saturday
141,48543194.37045275
190,0.0
2,14, 1,14, 0,12, 0.00,60.00,Saturday
141,48473869.49897809
190,0.0
2,14, 1,14, 0,13, 0.00,60.00,Saturday
141,48009761.92619988
190,0.0
2,14, 1,14, 0,14, 0.00,60.00,Saturday
141,46700449.66951857
190,0.0
2,14, 1,14, 0,15, 0.00,60.00,Saturday
141,46533635.44102719
190,0.0
2,14, 1,14, 0,16, 0.00,60.00,Saturday
141,46751973.79952333
190,0.0
2,14, 1,14, 0,17, 0.00,60.00,Saturday
141,47161867.055784725
190,0.0
2,14, 1,14, 0,18, 0.00,60.00,Saturday
141,48146539.49112856
190,0.0
2,14, 1,14, 0,19, 0.00,60.00,Saturday
141,48228533.65863547
190,0.0
2,14, 1,14, 0,20, 0.00,60.00,Saturday
141,48572161.05559537
190,0.0
2,14, 1,14, 0,21, 0.00,60.00,Saturday
141,48668697.26452111
190,0.0
2,14, 1,14, 0,22, 0.00,60.00,Saturday
141,48651437.853303716
190,0.0
2,14, 1,14, 0,23, 0.00,60.00,Saturday
141,48757876.14836341
190,0.0
2,14, 1,14, 0,24, 0.00,60.00,Saturday
141,49007692.65970192
190,0.0
2,15, 1,15, 0, 1, 0.00,60.00,Sunday
141,48682429.54920617
190,0.0
2,15, 1,15, 0, 2, 0.00,60.00,Sunday
141,47409718.72752789
190,0.0
2,15, 1,15, 0, 3, 0.00,60.00,Sunday
141,46852176.40632962
190,0.0
2,15, 1,15, 0, 4, 0.00,60.00,Sunday
141,46418713.47324112
190,0.0
2,15, 1,15, 0, 5, 0.00,60.00,Sunday
141,45430838.349197455
190,0.0
2,15, 1,15, 0, 6, 0.00,60.00,Sunday
141,44287967.14568273
190,0.0
2,15, 1,15, 0, 7, 0.00,60.00,Sunday
141,43068924.43896194
190,0.0
2,15, 1,15, 0, 8, 0.00,60.00,Sunday
141,42119140.208255894
190,0.0
2,15, 1,15, 0, 9, 0.00,60.00,Sunday
141,41267047.65153824
190,0.0
2,15, 1,15, 0,10, 0.00,60.00,Sunday
141,40798203.55260104
190,0.0
2,15, 1,15, 0,11, 0.00,60.00,Sunday
141,40897777.10203121
190,0.0
2,15, 1,15, 0,12, 0.00,60.00,Sunday
141,41819120.844680354
190,0.0
2,15, 1,15, 0,13, 0.00,60.00,Sunday
141,42370581.388900906
190,0.0
2,15, 1,15, 0,14, 0.00,60.00,Sunday
141,42369473.01063228
190,0.0
2,15, 1,15, 0,15, 0.00,60.00,Sunday
141,42207304.245650336
190,0.0
2,15, 1,15, 0,16, 0.00,60.00,Sunday
141,41636490.603987664
190,0.0
2,15, 1,15, 0,17, 0.00,60.00,Sunday
141,41256718.96058033
190,0.0
2,15, 1,15, 0,18, 0.00,60.00,Sunday
141,41245459.96386517
190,0.0
2,15, 1,15, 0,19, 0.00,60.00,Sunday
141,41381478.597941786
190,0.0
2,15, 1,15, 0,20, 0.00,60.00,Sunday
141,41584294.07646756
190,0.0
2,15, 1,15, 0,21, 0.00,60.00,Sunday
141,42164406.52956912
190,0.0
2,15, 1,15, 0,22, 0.00,60.00,Sunday
141,42451554.989393674
190,0.0
2,15, 1,15, 0,23, 0.00,60.00,Sunday
141,42553595.131724246
190,0.0
2,15, 1,15, 0,24, 0.00,60.00,Sunday
141,42843244.30197646
190,0.0
2,16, 1,16, 0, 1, 0.00,60.00,Monday
141,43609292.05048722
190,0.0
2,16, 1,16, 0, 2, 0.00,60.00,Monday
141,44372271.65604995
190,0.0
2,16, 1,16, 0, 3, 0.00,60.00,Monday
141,44907770.01140832
190,0.0
2,16, 1,16, 0, 4, 0.00,60.00,Monday
141,45337132.98987584
190,0.0
2,16, 1,16, 0, 5, 0.00,60.00,Monday
141,45834968.29022941
190,0.0
2,16, 1,16, 0, 6, 0.00,60.00,Monday
141,46246830.29794735
190,0.0
2,16, 1,16, 0, 7, 0.00,60.00,Monday
141,46941714.590895005
190,0.0
2,16, 1,16, 0, 8, 0.00,60.00,Monday
141,47586926.48916977
190,0.0
2,16, 1,16, 0, 9, 0.00,60.00,Monday
141,47904672.74444262
190,0.0
2,16, 1,16, 0,10, 0.00,60.00,Monday
141,47990468.92220513
190,0.0
2,16, 1,16, 0,11, 0.00,60.00,Monday
141,46816891.78389474
190,0.0
2,16, 1,16, 0,12, 0.00,60.00,Monday
141,45756675.15018763
190,0.0
2,16, 1,16, 0,13, 0.00,60.00,Monday
141,44837593.67760256
190,0.0
2,16, 1,16, 0,14, 0.00,60.00,Monday
141,44105942.55560262
190,0.0
2,16, 1,16, 0,15, 0.00,60.00,Monday
141,43900835.98850825
190,0.0
2,16, 1,16, 0,16, 0.00,60.00,Monday
141,44090082.68417387
190,0.0
2,16, 1,16, 0,17, 0.00,60.00,Monday
141,44715075.60753771
190,0.0
2,16, 1,16, 0,18, 0.00,60.00,Monday
141,45934977.89384601
190,0.0
2,16, 1,16, 0,19, 0.00,60.00,Monday
141,47190913.792189926
190,0.0
2,16, 1,16, 0,20, 0.00,60.00,Monday
141,47798945.19417848
190,0.0
2,16, 1,16, 0,21, 0.00,60.00,Monday
141,48266065.473225646
190,0.0
2,16, 1,16, 0,22, 0.00,60.00,Monday
141,48692874.15603577
190,0.0
2,16, 1,16, 0,23, 0.00,60.00,Monday
141,49358396.285687715
190,0.0
2,16, 1,16, 0,24, 0.00,60.00,Monday
141,49493729.75030284
190,0.0
2,17, 1,17, 0, 1, 0.00,60.00,Tuesday
141,49729844.38692742
190,0.0
2,17, 1,17, 0, 2, 0.00,60.00,Tuesday
141,50694483.45823077
190,0.0
2,17, 1,17, 0, 3, 0.00,60.00,Tuesday
141,51617056.57989673
190,0.0
2,17, 1,17, 0, 4, 0.00,60.00,Tuesday
141,52479829.286589034
190,0.0
2,17, 1,17, 0, 5, 0.00,60.00,Tuesday
141,53413833.65051811
190,0.0
2,17, 1,17, 0, 6, 0.00,60.00,Tuesday
141,54342400.054795
190,0.0
2,17, 1,17, 0, 7, 0.00,60.00,Tuesday
141,54995150.26025644
190,0.0
2,17, 1,17, 0, 8, 0.00,60.00,Tuesday
141,55460115.60630632
190,0.0
2,17, 1,17, 0, 9, 0.00,60.00,Tuesday
141,55756988.50954707
190,0.0
2,17, 1,17, 0,10, 0.00,60.00,Tuesday
141,54573377.2579689
190,0.0
2,17, 1,17, 0,11, 0.00,60.00,Tuesday
141,52698844.55287128
190,0.0
2,17, 1,17, 0,12, 0.00,60.00,Tuesday
141,51051486.105556935
190,0.0
2,17, 1,17, 0,13, 0.00,60.00,Tuesday
141,49993322.6540908
190,0.0
2,17, 1,17, 0,14, 0.00,60.00,Tuesday
141,49506544.77875421
190,0.0
2,17, 1,17, 0,15, 0.00,60.00,Tuesday
141,49320743.1656886
190,0.0
2,17, 1,17, 0,16, 0.00,60.00,Tuesday
141,49612066.775433525
190,0.0
2,17, 1,17, 0,17, 0.00,60.00,Tuesday
141,49605475.88930966
190,0.0
2,17, 1,17, 0,18, 0.00,60.00,Tuesday
141,48903518.953477666
190,0.0
2,17, 1,17, 0,19, 0.00,60.00,Tuesday
141,48185438.470366925
190,0.0
2,17, 1,17, 0,20, 0.00,60.00,Tuesday
141,47925798.49679975
190,0.0
2,17, 1,17, 0,21, 0.00,60.00,Tuesday
141,47990783.672651686
190,0.0
2,17, 1,17, 0,22, 0.00,60.00,Tuesday
141,47943388.899576426
190,0.0
2,17, 1,17, 0,23, 0.00,60.00,Tuesday
141,47999663.76047383
190,0.0
2,17, 1,17, 0,24, 0.00,60.00,Tuesday
141,48537560.265261434
190,0.0
2,18, 1,18, 0, 1, 0.00,60.00,Wednesday
141,48992938.782680176
190,0.0
2,18, 1,18, 0, 2, 0.00,60.00,Wednesday
141,49476640.39536008
190,0.0
2,18, 1,18, 0, 3, 0.00,60.00,Wednesday
141,49912048.545507334
190,0.0
2,18, 1,18, 0, 4, 0.00,60.00,Wednesday
141,50273396.502348125
190,0.0
2,18, 1,18, 0, 5, 0.00,60.00,Wednesday
141,50672049.10332139
190,0.0
2,18, 1,18, 0, 6, 0.00,60.00,Wednesday
141,51108315.47937127
190,0.0
2,18, 1,18, 0, 7, 0.00,60.00,Wednesday
141,52090467.44919363
190,0.0
2,18, 1,18, 0, 8, 0.00,60.00,Wednesday
141,52520963.97189705
190,0.0
2,18, 1,18, 0, 9, 0.00,60.00,Wednesday
141,52812687.46612327
190,0.0
2,18, 1,18, 0,10, 0.00,60.00,Wednesday
141,52915923.02986614
190,0.0
2,18, 1,18, 0,11, 0.00,60.00,Wednesday
141,52343719.19246128
190,0.0
2,18, 1,18, 0,12, 0.00,60.00,Wednesday
141,51904107.77704157
190,0.0
2,18, 1,18, 0,13, 0.00,60.00,Wednesday
141,52198771.25868925
190,0.0
2,18, 1,18, 0,14, 0.00,60.00,Wednesday
141,52722813.029785186
190,0.0
2,18, 1,18, 0,15, 0.00,60.00,Wednesday
141,52950859.02199698
190,0.0
2,18, 1,18, 0,16, 0.00,60.00,Wednesday
141,53468752.327275775
190,0.0
2,18, 1,18, 0,17, 0.00,60.00,Wednesday
141,53675965.08178701
190,0.0
2,18, 1,18, 0,18, 0.00,60.00,Wednesday
141,53365116.25559032
190,0.0
2,18, 1,18, 0,19, 0.00,60.00,Wednesday
141,53217767.01605653
190,0.0
2,18, 1,18, 0,20, 0.00,60.00,Wednesday
141,53328982.0834979
190,0.0
2,18, 1,18, 0,21, 0.00,60.00,Wednesday
141,53428343.36685862
190,0.0
2,18, 1,18, 0,22, 0.00,60.00,Wednesday
141,53649751.39739386
190,0.0
2,18, 1,18, 0,23, 0.00,60.00,Wednesday
141,53811711.44411142
190,0.0
2,18, 1,18, 0,24, 0.00,60.00,Wednesday
141,54014151.11131229
190,0.0
2,19, 1,19, 0, 1, 0.00,60.00,Thursday
141,53797054.14179666
190,0.0
2,19, 1,19, 0, 2, 0.00,60.00,Thursday
141,53907573.40231685
190,0.0
2,19, 1,19, 0, 3, 0.00,60.00,Thursday