Program Version,EnergyPlus, Version 24.2.0-94a887817b, YMD=2025.04.24 13:18
1,5,Environment Title[],Latitude[deg],Longitude[deg],Time Zone[],Elevation[m]
2,8,Day of Simulation[],Month[],Day of Month[],DST Indicator[1=yes 0=no],Hour[],StartMinute[],EndMinute[],DayType
3,5,Cumulative Day of Simulation[],Month[],Day of Month[],DST Indicator[1=yes 0=no],DayType  ! When Daily Report Variables Requested
4,2,Cumulative Days of Simulation[],Month[]  ! When Monthly Report Variables Requested
5,1,Cumulative Days of Simulation[] ! When Run Period Report Variables Requested
6,1,Calendar Year of Simulation[] ! When Annual Report Variables Requested
141,1,ZONE_0599100000065855 IDEAL LOADS AIR SYSTEM,Zone Ideal Loads Supply Air Total Heating Energy [J] !Hourly
190,1,ZONE_0599100000065855 IDEAL LOADS AIR SYSTEM,Zone Ideal Loads Supply Air Total Cooling Energy [J] !Hourly
End of Data Dictionary
1,RUN PERIOD 1,  51.96,   4.45,   1.00,  -4.50
2,1, 1, 1, 0, 1, 0.00,60.00,Sunday
141,40964136.230223045
190,0.0
2,1, 1, 1, 0, 2, 0.00,60.00,Sunday
141,42083984.58242093
190,0.0
2,1, 1, 1, 0, 3, 0.00,60.00,Sunday
141,42105537.89029898
190,0.0
2,1, 1, 1, 0, 4, 0.00,60.00,Sunday
141,42950370.08060097
190,0.0
2,1, 1, 1, 0, 5, 0.00,60.00,Sunday
141,43566696.240433216
190,0.0
2,1, 1, 1, 0, 6, 0.00,60.00,Sunday
141,43726429.267310426
190,0.0
2,1, 1, 1, 0, 7, 0.00,60.00,Sunday
141,43947499.893235765
190,0.0
2,1, 1, 1, 0, 8, 0.00,60.00,Sunday
141,44020458.575663
190,0.0
2,1, 1, 1, 0, 9, 0.00,60.00,Sunday
141,44118555.11641358
190,0.0
2,1, 1, 1, 0,10, 0.00,60.00,Sunday
141,44033474.10231092
190,0.0
2,1, 1, 1, 0,11, 0.00,60.00,Sunday
141,43542528.11984723
190,0.0
2,1, 1, 1, 0,12, 0.00,60.00,Sunday
141,42607789.92472297
190,0.0
2,1, 1, 1, 0,13, 0.00,60.00,Sunday
141,42140582.829012565
190,0.0
2,1, 1, 1, 0,14, 0.00,60.00,Sunday
141,41354438.75551112
190,0.0
2,1, 1, 1, 0,15, 0.00,60.00,Sunday
141,40668842.36617122
190,0.0
2,1, 1, 1, 0,16, 0.00,60.00,Sunday
141,40899567.64569581
190,0.0
2,1, 1, 1, 0,17, 0.00,60.00,Sunday
141,41226668.6782051
190,0.0
2,1, 1, 1, 0,18, 0.00,60.00,Sunday
141,41147966.95772532
190,0.0
2,1, 1, 1, 0,19, 0.00,60.00,Sunday
141,41102878.54076244
190,0.0
2,1, 1, 1, 0,20, 0.00,60.00,Sunday
141,40923163.289742336
190,0.0
2,1, 1, 1, 0,21, 0.00,60.00,Sunday
141,40740484.83012478
190,0.0
2,1, 1, 1, 0,22, 0.00,60.00,Sunday
141,40781726.84987276
190,0.0
2,1, 1, 1, 0,23, 0.00,60.00,Sunday
141,40038266.968108416
190,0.0
2,1, 1, 1, 0,24, 0.00,60.00,Sunday
141,39511022.73313054
190,0.0
2,2, 1, 2, 0, 1, 0.00,60.00,Monday
141,39651741.00263519
190,0.0
2,2, 1, 2, 0, 2, 0.00,60.00,Monday
141,38928383.13164468
190,0.0
2,2, 1, 2, 0, 3, 0.00,60.00,Monday
141,38368828.570132084
190,0.0
2,2, 1, 2, 0, 4, 0.00,60.00,Monday
141,37782873.504332505
190,0.0
2,2, 1, 2, 0, 5, 0.00,60.00,Monday
141,36468607.78623536
190,0.0
2,2, 1, 2, 0, 6, 0.00,60.00,Monday
141,35800482.59277432
190,0.0
2,2, 1, 2, 0, 7, 0.00,60.00,Monday
141,34745688.937844634
190,0.0
2,2, 1, 2, 0, 8, 0.00,60.00,Monday
141,33439373.176693052
190,0.0
2,2, 1, 2, 0, 9, 0.00,60.00,Monday
141,33635217.447901234
190,0.0
2,2, 1, 2, 0,10, 0.00,60.00,Monday
141,34308798.47779156
190,0.0
2,2, 1, 2, 0,11, 0.00,60.00,Monday
141,34669969.54016916
190,0.0
2,2, 1, 2, 0,12, 0.00,60.00,Monday
141,33925151.564322576
190,0.0
2,2, 1, 2, 0,13, 0.00,60.00,Monday
141,33530785.806520328
190,0.0
2,2, 1, 2, 0,14, 0.00,60.00,Monday
141,34043767.60358413
190,0.0
2,2, 1, 2, 0,15, 0.00,60.00,Monday
141,34279561.44810921
190,0.0
2,2, 1, 2, 0,16, 0.00,60.00,Monday
141,34875364.403668374
190,0.0
2,2, 1, 2, 0,17, 0.00,60.00,Monday
141,35499991.24698503
190,0.0
2,2, 1, 2, 0,18, 0.00,60.00,Monday
141,35701058.88473194
190,0.0
2,2, 1, 2, 0,19, 0.00,60.00,Monday
141,36449554.46949122
190,0.0
2,2, 1, 2, 0,20, 0.00,60.00,Monday
141,37171357.34704902
190,0.0
2,2, 1, 2, 0,21, 0.00,60.00,Monday
141,37435272.23600495
190,0.0
2,2, 1, 2, 0,22, 0.00,60.00,Monday
141,37606344.2213191
190,0.0
2,2, 1, 2, 0,23, 0.00,60.00,Monday
141,37832997.2319005
190,0.0
2,2, 1, 2, 0,24, 0.00,60.00,Monday
141,38078006.88779529
190,0.0
2,3, 1, 3, 0, 1, 0.00,60.00,Tuesday
141,38336367.08332039
190,0.0
2,3, 1, 3, 0, 2, 0.00,60.00,Tuesday
141,38530205.19905368
190,0.0
2,3, 1, 3, 0, 3, 0.00,60.00,Tuesday
141,38685776.96908045
190,0.0
2,3, 1, 3, 0, 4, 0.00,60.00,Tuesday
141,38915952.1067452
190,0.0
2,3, 1, 3, 0, 5, 0.00,60.00,Tuesday
141,39718788.73122129
190,0.0
2,3, 1, 3, 0, 6, 0.00,60.00,Tuesday
141,40215985.225331254
190,0.0
2,3, 1, 3, 0, 7, 0.00,60.00,Tuesday
141,40432161.21475385
190,0.0
2,3, 1, 3, 0, 8, 0.00,60.00,Tuesday
141,40336607.98790321
190,0.0
2,3, 1, 3, 0, 9, 0.00,60.00,Tuesday
141,40879279.510289915
190,0.0
2,3, 1, 3, 0,10, 0.00,60.00,Tuesday
141,41112035.41328722
190,0.0
2,3, 1, 3, 0,11, 0.00,60.00,Tuesday
141,41132309.54769864
190,0.0
2,3, 1, 3, 0,12, 0.00,60.00,Tuesday
141,41264404.19084585
190,0.0
2,3, 1, 3, 0,13, 0.00,60.00,Tuesday
141,42147918.974256486
190,0.0
2,3, 1, 3, 0,14, 0.00,60.00,Tuesday
141,42654456.89868032
190,0.0
2,3, 1, 3, 0,15, 0.00,60.00,Tuesday
141,42560510.75593728
190,0.0
2,3, 1, 3, 0,16, 0.00,60.00,Tuesday
141,42463389.46285241
190,0.0
2,3, 1, 3, 0,17, 0.00,60.00,Tuesday
141,42478082.788942546
190,0.0
2,3, 1, 3, 0,18, 0.00,60.00,Tuesday
141,42521152.41063458
190,0.0
2,3, 1, 3, 0,19, 0.00,60.00,Tuesday
141,42334692.78080198
190,0.0
2,3, 1, 3, 0,20, 0.00,60.00,Tuesday
141,41582765.563683495
190,0.0
2,3, 1, 3, 0,21, 0.00,60.00,Tuesday
141,39644083.491111726
190,0.0
2,3, 1, 3, 0,22, 0.00,60.00,Tuesday
141,38647970.86152162
190,0.0
2,3, 1, 3, 0,23, 0.00,60.00,Tuesday
141,39460315.22954901
190,0.0
2,3, 1, 3, 0,24, 0.00,60.00,Tuesday
141,40796280.28253487
190,0.0
2,4, 1, 4, 0, 1, 0.00,60.00,Wednesday
141,41493261.726766825
190,0.0
2,4, 1, 4, 0, 2, 0.00,60.00,Wednesday
141,41484030.43170236
190,0.0
2,4, 1, 4, 0, 3, 0.00,60.00,Wednesday
141,41422575.26835753
190,0.0
2,4, 1, 4, 0, 4, 0.00,60.00,Wednesday
141,41776868.40402018
190,0.0
2,4, 1, 4, 0, 5, 0.00,60.00,Wednesday
141,42736424.88253243
190,0.0
2,4, 1, 4, 0, 6, 0.00,60.00,Wednesday
141,42618951.840963945
190,0.0
2,4, 1, 4, 0, 7, 0.00,60.00,Wednesday
141,42648514.14206725
190,0.0
2,4, 1, 4, 0, 8, 0.00,60.00,Wednesday
141,43027416.80078316
190,0.0
2,4, 1, 4, 0, 9, 0.00,60.00,Wednesday
141,43296638.380565375
190,0.0
2,4, 1, 4, 0,10, 0.00,60.00,Wednesday
141,43513055.841385864
190,0.0
2,4, 1, 4, 0,11, 0.00,60.00,Wednesday
141,42048972.83287104
190,0.0
2,4, 1, 4, 0,12, 0.00,60.00,Wednesday
141,39585720.828360684
190,0.0
2,4, 1, 4, 0,13, 0.00,60.00,Wednesday
141,39009976.811679974
190,0.0
2,4, 1, 4, 0,14, 0.00,60.00,Wednesday
141,39001805.15325185
190,0.0
2,4, 1, 4, 0,15, 0.00,60.00,Wednesday
141,38782034.486242086
190,0.0
2,4, 1, 4, 0,16, 0.00,60.00,Wednesday
141,39794884.150606215
190,0.0
2,4, 1, 4, 0,17, 0.00,60.00,Wednesday
141,41599213.183977
190,0.0
2,4, 1, 4, 0,18, 0.00,60.00,Wednesday
141,43141130.65932459
190,0.0
2,4, 1, 4, 0,19, 0.00,60.00,Wednesday
141,44727534.15747553
190,0.0
2,4, 1, 4, 0,20, 0.00,60.00,Wednesday
141,45578296.04683185
190,0.0
2,4, 1, 4, 0,21, 0.00,60.00,Wednesday
141,46026684.529135555
190,0.0
2,4, 1, 4, 0,22, 0.00,60.00,Wednesday
141,46960525.81338681
190,0.0
2,4, 1, 4, 0,23, 0.00,60.00,Wednesday
141,46811313.59175007
190,0.0
2,4, 1, 4, 0,24, 0.00,60.00,Wednesday
141,46475958.30089661
190,0.0
2,5, 1, 5, 0, 1, 0.00,60.00,Thursday
141,46969590.11012579
190,0.0
2,5, 1, 5, 0, 2, 0.00,60.00,Thursday
141,46843657.526668034
190,0.0
2,5, 1, 5, 0, 3, 0.00,60.00,Thursday
141,46704530.227831416
190,0.0
2,5, 1, 5, 0, 4, 0.00,60.00,Thursday
141,46992106.93879978
190,0.0
2,5, 1, 5, 0, 5, 0.00,60.00,Thursday
141,46702345.07418952
190,0.0
2,5, 1, 5, 0, 6, 0.00,60.00,Thursday
141,46617659.17178434
190,0.0
2,5, 1, 5, 0, 7, 0.00,60.00,Thursday
141,46969601.00774632
190,0.0
2,5, 1, 5, 0, 8, 0.00,60.00,Thursday
141,47241978.408172
190,0.0
2,5, 1, 5, 0, 9, 0.00,60.00,Thursday
141,47310238.54345906
190,0.0
2,5, 1, 5, 0,10, 0.00,60.00,Thursday
141,47750808.63068384
190,0.0
2,5, 1, 5, 0,11, 0.00,60.00,Thursday
141,47551734.13921869
190,0.0
2,5, 1, 5, 0,12, 0.00,60.00,Thursday
141,46359817.44970253
190,0.0
2,5, 1, 5, 0,13, 0.00,60.00,Thursday
141,45810122.82719376
190,0.0
2,5, 1, 5, 0,14, 0.00,60.00,Thursday
141,44776150.209668145
190,0.0
2,5, 1, 5, 0,15, 0.00,60.00,Thursday
141,43830250.89636922
190,0.0
2,5, 1, 5, 0,16, 0.00,60.00,Thursday
141,43970875.07055232
190,0.0
2,5, 1, 5, 0,17, 0.00,60.00,Thursday
141,43466637.40609481
190,0.0
2,5, 1, 5, 0,18, 0.00,60.00,Thursday
141,42773408.10864078
190,0.0
2,5, 1, 5, 0,19, 0.00,60.00,Thursday
141,42651074.01546726
190,0.0
2,5, 1, 5, 0,20, 0.00,60.00,Thursday
141,42350226.22497283
190,0.0
2,5, 1, 5, 0,21, 0.00,60.00,Thursday
141,42016042.97769955
190,0.0
2,5, 1, 5, 0,22, 0.00,60.00,Thursday
141,41858530.61645769
190,0.0
2,5, 1, 5, 0,23, 0.00,60.00,Thursday
141,41875034.38489041
190,0.0
2,5, 1, 5, 0,24, 0.00,60.00,Thursday
141,41930178.62377291
190,0.0
2,6, 1, 6, 0, 1, 0.00,60.00,Friday
141,41941039.72475298
190,0.0
2,6, 1, 6, 0, 2, 0.00,60.00,Friday
141,41957761.19432245
190,0.0
2,6, 1, 6, 0, 3, 0.00,60.00,Friday
141,42596356.050576545
190,0.0
2,6, 1, 6, 0, 4, 0.00,60.00,Friday
141,43222701.87483989
190,0.0
2,6, 1, 6, 0, 5, 0.00,60.00,Friday
141,43527767.528252326
190,0.0
2,6, 1, 6, 0, 6, 0.00,60.00,Friday
141,43933041.02021949
190,0.0
2,6, 1, 6, 0, 7, 0.00,60.00,Friday
141,44577760.05089655
190,0.0
2,6, 1, 6, 0, 8, 0.00,60.00,Friday
141,45216630.26576151
190,0.0
2,6, 1, 6, 0, 9, 0.00,60.00,Friday
141,46016676.830179535
190,0.0
2,6, 1, 6, 0,10, 0.00,60.00,Friday
141,46548708.60349675
190,0.0
2,6, 1, 6, 0,11, 0.00,60.00,Friday
141,46171217.329696044
190,0.0
2,6, 1, 6, 0,12, 0.00,60.00,Friday
141,45526538.847596206
190,0.0
2,6, 1, 6, 0,13, 0.00,60.00,Friday
141,45260856.782680474
190,0.0
2,6, 1, 6, 0,14, 0.00,60.00,Friday
141,45144641.607812054
190,0.0
2,6, 1, 6, 0,15, 0.00,60.00,Friday
141,44885850.42518627
190,0.0
2,6, 1, 6, 0,16, 0.00,60.00,Friday
141,44285508.01457668
190,0.0
2,6, 1, 6, 0,17, 0.00,60.00,Friday
141,43646524.61976166
190,0.0
2,6, 1, 6, 0,18, 0.00,60.00,Friday
141,43291223.29217651
190,0.0
2,6, 1, 6, 0,19, 0.00,60.00,Friday
141,42939621.794725955
190,0.0
2,6, 1, 6, 0,20, 0.00,60.00,Friday
141,42250083.42702269
190,0.0
2,6, 1, 6, 0,21, 0.00,60.00,Friday
141,40608610.05928867
190,0.0
2,6, 1, 6, 0,22, 0.00,60.00,Friday
141,38671884.26049741
190,0.0
2,6, 1, 6, 0,23, 0.00,60.00,Friday
141,37865674.08287491
190,0.0
2,6, 1, 6, 0,24, 0.00,60.00,Friday
141,38141275.55478056
190,0.0
2,7, 1, 7, 0, 1, 0.00,60.00,Saturday
141,39797066.15535414
190,0.0
2,7, 1, 7, 0, 2, 0.00,60.00,Saturday
141,41408301.44922815
190,0.0
2,7, 1, 7, 0, 3, 0.00,60.00,Saturday
141,41140880.55415607
190,0.0
2,7, 1, 7, 0, 4, 0.00,60.00,Saturday
141,41239283.63604826
190,0.0
2,7, 1, 7, 0, 5, 0.00,60.00,Saturday
141,42332887.458245605
190,0.0
2,7, 1, 7, 0, 6, 0.00,60.00,Saturday
141,43196375.20486652
190,0.0
2,7, 1, 7, 0, 7, 0.00,60.00,Saturday
141,43712753.88913602
190,0.0
2,7, 1, 7, 0, 8, 0.00,60.00,Saturday
141,43990550.79693688
190,0.0
2,7, 1, 7, 0, 9, 0.00,60.00,Saturday
141,43420124.936361425
190,0.0
2,7, 1, 7, 0,10, 0.00,60.00,Saturday
141,42944071.902773395
190,0.0
2,7, 1, 7, 0,11, 0.00,60.00,Saturday
141,41405991.63019499
190,0.0
2,7, 1, 7, 0,12, 0.00,60.00,Saturday
141,39823513.69351044
190,0.0
2,7, 1, 7, 0,13, 0.00,60.00,Saturday
141,38578326.16844218
190,0.0
2,7, 1, 7, 0,14, 0.00,60.00,Saturday
141,37764023.100753985
190,0.0
2,7, 1, 7, 0,15, 0.00,60.00,Saturday
141,37671200.1776763
190,0.0
2,7, 1, 7, 0,16, 0.00,60.00,Saturday
141,37776061.5275546
190,0.0
2,7, 1, 7, 0,17, 0.00,60.00,Saturday
141,37765439.88532965
190,0.0
2,7, 1, 7, 0,18, 0.00,60.00,Saturday
141,38133747.93528197
190,0.0
2,7, 1, 7, 0,19, 0.00,60.00,Saturday
141,38532836.9952101
190,0.0
2,7, 1, 7, 0,20, 0.00,60.00,Saturday
141,39009120.70818094
190,0.0
2,7, 1, 7, 0,21, 0.00,60.00,Saturday
141,39379409.52014202
190,0.0
2,7, 1, 7, 0,22, 0.00,60.00,Saturday
141,39340182.00510313
190,0.0
2,7, 1, 7, 0,23, 0.00,60.00,Saturday
141,39445565.20352822
190,0.0
2,7, 1, 7, 0,24, 0.00,60.00,Saturday
141,39482871.56795041
190,0.0
2,8, 1, 8, 0, 1, 0.00,60.00,Sunday
141,39166908.036147155
190,0.0
2,8, 1, 8, 0, 2, 0.00,60.00,Sunday
141,38842393.42793729
190,0.0
2,8, 1, 8, 0, 3, 0.00,60.00,Sunday
141,38611982.98158364
190,0.0
2,8, 1, 8, 0, 4, 0.00,60.00,Sunday
141,38160234.1368066
190,0.0
2,8, 1, 8, 0, 5, 0.00,60.00,Sunday
141,37510081.84270085
190,0.0
2,8, 1, 8, 0, 6, 0.00,60.00,Sunday
141,37019239.36928584
190,0.0
2,8, 1, 8, 0, 7, 0.00,60.00,Sunday
141,36615642.67993978
190,0.0
2,8, 1, 8, 0, 8, 0.00,60.00,Sunday
141,36215929.162299596
190,0.0
2,8, 1, 8, 0, 9, 0.00,60.00,Sunday
141,35733662.91944206
190,0.0
2,8, 1, 8, 0,10, 0.00,60.00,Sunday
141,35513612.146235764
190,0.0
2,8, 1, 8, 0,11, 0.00,60.00,Sunday
141,35285927.467641875
190,0.0
2,8, 1, 8, 0,12, 0.00,60.00,Sunday
141,35232130.59534919
190,0.0
2,8, 1, 8, 0,13, 0.00,60.00,Sunday
141,34974589.18541792
190,0.0
2,8, 1, 8, 0,14, 0.00,60.00,Sunday
141,34902775.381375946
190,0.0
2,8, 1, 8, 0,15, 0.00,60.00,Sunday
141,35739569.95122375
190,0.0
2,8, 1, 8, 0,16, 0.00,60.00,Sunday
141,36320450.885679714
190,0.0
2,8, 1, 8, 0,17, 0.00,60.00,Sunday
141,36248289.81655519
190,0.0
2,8, 1, 8, 0,18, 0.00,60.00,Sunday
141,36512463.75273934
190,0.0
2,8, 1, 8, 0,19, 0.00,60.00,Sunday
141,36335983.33650094
190,0.0
2,8, 1, 8, 0,20, 0.00,60.00,Sunday
141,35761165.40235797
190,0.0
2,8, 1, 8, 0,21, 0.00,60.00,Sunday
141,35376239.651489444
190,0.0
2,8, 1, 8, 0,22, 0.00,60.00,Sunday
141,35569015.60761436
190,0.0
2,8, 1, 8, 0,23, 0.00,60.00,Sunday
141,35760035.3351004
190,0.0
2,8, 1, 8, 0,24, 0.00,60.00,Sunday
141,36193106.20517648
190,0.0
2,9, 1, 9, 0, 1, 0.00,60.00,Monday
141,36333236.35265206
190,0.0
2,9, 1, 9, 0, 2, 0.00,60.00,Monday
141,36449146.433431536
190,0.0
2,9, 1, 9, 0, 3, 0.00,60.00,Monday
141,36441864.41107558
190,0.0
2,9, 1, 9, 0, 4, 0.00,60.00,Monday
141,36299099.95501084
190,0.0
2,9, 1, 9, 0, 5, 0.00,60.00,Monday
141,35866041.05019708
190,0.0
2,9, 1, 9, 0, 6, 0.00,60.00,Monday
141,35402039.445233695
190,0.0
2,9, 1, 9, 0, 7, 0.00,60.00,Monday
141,35048970.63007303
190,0.0
2,9, 1, 9, 0, 8, 0.00,60.00,Monday
141,34831410.33034327
190,0.0
2,9, 1, 9, 0, 9, 0.00,60.00,Monday
141,34240812.16666868
190,0.0
2,9, 1, 9, 0,10, 0.00,60.00,Monday
141,32855876.039437678
190,0.0
2,9, 1, 9, 0,11, 0.00,60.00,Monday
141,31661023.843710978
190,0.0
2,9, 1, 9, 0,12, 0.00,60.00,Monday
141,30955951.373341665
190,0.0
2,9, 1, 9, 0,13, 0.00,60.00,Monday
141,30326394.425448902
190,0.0
2,9, 1, 9, 0,14, 0.00,60.00,Monday
141,29793222.586332772
190,0.0
2,9, 1, 9, 0,15, 0.00,60.00,Monday
141,29471362.449202385
190,0.0
2,9, 1, 9, 0,16, 0.00,60.00,Monday
141,29530454.974515572
190,0.0
2,9, 1, 9, 0,17, 0.00,60.00,Monday
141,30229364.52026057
190,0.0
2,9, 1, 9, 0,18, 0.00,60.00,Monday
141,30904509.755709726
190,0.0
2,9, 1, 9, 0,19, 0.00,60.00,Monday
141,30701663.607810073
190,0.0
2,9, 1, 9, 0,20, 0.00,60.00,Monday
141,29416242.49209324
190,0.0
2,9, 1, 9, 0,21, 0.00,60.00,Monday
141,28127677.604626242
190,0.0
2,9, 1, 9, 0,22, 0.00,60.00,Monday
141,27286471.704747602
190,0.0
2,9, 1, 9, 0,23, 0.00,60.00,Monday
141,27004693.19229903
190,0.0
2,9, 1, 9, 0,24, 0.00,60.00,Monday
141,26890211.275946584
190,0.0
2,10, 1,10, 0, 1, 0.00,60.00,Tuesday
141,26989405.916253403
190,0.0
2,10, 1,10, 0, 2, 0.00,60.00,Tuesday
141,26963277.91410695
190,0.0
2,10, 1,10, 0, 3, 0.00,60.00,Tuesday
141,26749902.95898457
190,0.0
2,10, 1,10, 0, 4, 0.00,60.00,Tuesday
141,26870075.166472778
190,0.0
2,10, 1,10, 0, 5, 0.00,60.00,Tuesday
141,26772422.47255872
190,0.0
2,10, 1,10, 0, 6, 0.00,60.00,Tuesday
141,26604863.526088044
190,0.0
2,10, 1,10, 0, 7, 0.00,60.00,Tuesday
141,26472423.06260495
190,0.0
2,10, 1,10, 0, 8, 0.00,60.00,Tuesday
141,26190295.28890886
190,0.0
2,10, 1,10, 0, 9, 0.00,60.00,Tuesday
141,25876033.575845644
190,0.0
2,10, 1,10, 0,10, 0.00,60.00,Tuesday
141,25514867.81587357
190,0.0
2,10, 1,10, 0,11, 0.00,60.00,Tuesday
141,25053955.668864656
190,0.0
2,10, 1,10, 0,12, 0.00,60.00,Tuesday
141,24549097.281730305
190,0.0
2,10, 1,10, 0,13, 0.00,60.00,Tuesday
141,24397954.818662487
190,0.0
2,10, 1,10, 0,14, 0.00,60.00,Tuesday
141,25859414.95026447
190,0.0
2,10, 1,10, 0,15, 0.00,60.00,Tuesday
141,27047511.635926522
190,0.0
2,10, 1,10, 0,16, 0.00,60.00,Tuesday
141,27801229.16779914
190,0.0
2,10, 1,10, 0,17, 0.00,60.00,Tuesday
141,28643855.16839424
190,0.0
2,10, 1,10, 0,18, 0.00,60.00,Tuesday
141,29792512.423162676
190,0.0
2,10, 1,10, 0,19, 0.00,60.00,Tuesday
141,30553155.614993583
190,0.0
2,10, 1,10, 0,20, 0.00,60.00,Tuesday
141,31289490.672406983
190,0.0
2,10, 1,10, 0,21, 0.00,60.00,Tuesday
141,32371026.613250848
190,0.0
2,10, 1,10, 0,22, 0.00,60.00,Tuesday
141,33255425.628746808
190,0.0
2,10, 1,10, 0,23, 0.00,60.00,Tuesday
141,33593869.21690423
190,0.0
2,10, 1,10, 0,24, 0.00,60.00,Tuesday
141,34614711.41941991
190,0.0
2,11, 1,11, 0, 1, 0.00,60.00,Wednesday
141,35292455.97596136
190,0.0
2,11, 1,11, 0, 2, 0.00,60.00,Wednesday
141,35960705.75138627
190,0.0
2,11, 1,11, 0, 3, 0.00,60.00,Wednesday
141,36763170.48062242
190,0.0
2,11, 1,11, 0, 4, 0.00,60.00,Wednesday
141,36941627.42491512
190,0.0
2,11, 1,11, 0, 5, 0.00,60.00,Wednesday
141,37123657.8522345
190,0.0
2,11, 1,11, 0, 6, 0.00,60.00,Wednesday
141,37364316.94002855
190,0.0
2,11, 1,11, 0, 7, 0.00,60.00,Wednesday
141,37707378.82350469
190,0.0
2,11, 1,11, 0, 8, 0.00,60.00,Wednesday
141,38006956.02896078
190,0.0
2,11, 1,11, 0, 9, 0.00,60.00,Wednesday
141,38088110.045126915
190,0.0
2,11, 1,11, 0,10, 0.00,60.00,Wednesday
141,38017828.69863526
190,0.0
2,11, 1,11, 0,11, 0.00,60.00,Wednesday
141,37790484.013889566
190,0.0
2,11, 1,11, 0,12, 0.00,60.00,Wednesday
141,37309149.02136146
190,0.0
2,11, 1,11, 0,13, 0.00,60.00,Wednesday
141,36846008.503530525
190,0.0
2,11, 1,11, 0,14, 0.00,60.00,Wednesday
141,36495635.114286266
190,0.0
2,11, 1,11, 0,15, 0.00,60.00,Wednesday
141,36173703.31388038
190,0.0
2,11, 1,11, 0,16, 0.00,60.00,Wednesday
141,35852667.66384935
190,0.0
2,11, 1,11, 0,17, 0.00,60.00,Wednesday
141,35228235.42888355
190,0.0
2,11, 1,11, 0,18, 0.00,60.00,Wednesday
141,34642367.03919892
190,0.0
2,11, 1,11, 0,19, 0.00,60.00,Wednesday
141,34194770.144943
190,0.0
2,11, 1,11, 0,20, 0.00,60.00,Wednesday
141,33978586.97384369
190,0.0
2,11, 1,11, 0,21, 0.00,60.00,Wednesday
141,33834419.92541376
190,0.0
2,11, 1,11, 0,22, 0.00,60.00,Wednesday
141,33187512.817006174
190,0.0
2,11, 1,11, 0,23, 0.00,60.00,Wednesday
141,32695193.757256687
190,0.0
2,11, 1,11, 0,24, 0.00,60.00,Wednesday
141,32677709.213143386
190,0.0
2,12, 1,12, 0, 1, 0.00,60.00,Thursday
141,32834712.968543496
190,0.0
2,12, 1,12, 0, 2, 0.00,60.00,Thursday
141,32812459.78033287
190,0.0
2,12, 1,12, 0, 3, 0.00,60.00,Thursday
141,32632725.739099838
190,0.0
2,12, 1,12, 0, 4, 0.00,60.00,Thursday
141,32607292.465907533
190,0.0
2,12, 1,12, 0, 5, 0.00,60.00,Thursday
141,32763543.2095796
190,0.0
2,12, 1,12, 0, 6, 0.00,60.00,Thursday
141,33187819.235899113
190,0.0
2,12, 1,12, 0, 7, 0.00,60.00,Thursday
141,33404310.176640373
190,0.0
2,12, 1,12, 0, 8, 0.00,60.00,Thursday
141,33437222.179997586
190,0.0
2,12, 1,12, 0, 9, 0.00,60.00,Thursday
141,33092158.10615222
190,0.0
2,12, 1,12, 0,10, 0.00,60.00,Thursday
141,32373100.620804373
190,0.0
2,12, 1,12, 0,11, 0.00,60.00,Thursday
141,31822613.557419643
190,0.0
2,12, 1,12, 0,12, 0.00,60.00,Thursday
141,31505646.993472695
190,0.0
2,12, 1,12, 0,13, 0.00,60.00,Thursday
141,31113809.821488082
190,0.0
2,12, 1,12, 0,14, 0.00,60.00,Thursday
141,30712743.86129982
190,0.0
2,12, 1,12, 0,15, 0.00,60.00,Thursday
141,30738294.04385888
190,0.0
2,12, 1,12, 0,16, 0.00,60.00,Thursday
141,30950817.464271173
190,0.0
2,12, 1,12, 0,17, 0.00,60.00,Thursday
141,31824473.743947115
190,0.0
2,12, 1,12, 0,18, 0.00,60.00,Thursday
141,32336103.397342563
190,0.0
2,12, 1,12, 0,19, 0.00,60.00,Thursday
141,32147430.536652766
190,0.0
2,12, 1,12, 0,20, 0.00,60.00,Thursday
141,31688033.937179573
190,0.0
2,12, 1,12, 0,21, 0.00,60.00,Thursday
141,31497782.64057669
190,0.0
2,12, 1,12, 0,22, 0.00,60.00,Thursday
141,31159577.681249164
190,0.0
2,12, 1,12, 0,23, 0.00,60.00,Thursday
141,30986872.673152775
190,0.0
2,12, 1,12, 0,24, 0.00,60.00,Thursday
141,30924983.354278058
190,0.0
2,13, 1,13, 0, 1, 0.00,60.00,Friday
141,30608437.446861863
190,0.0
2,13, 1,13, 0, 2, 0.00,60.00,Friday
141,30291372.064732384
190,0.0
2,13, 1,13, 0, 3, 0.00,60.00,Friday
141,29869309.631825306
190,0.0
2,13, 1,13, 0, 4, 0.00,60.00,Friday
141,29552191.86871668
190,0.0
2,13, 1,13, 0, 5, 0.00,60.00,Friday
141,29386141.33531744
190,0.0
2,13, 1,13, 0, 6, 0.00,60.00,Friday
141,29292190.259004418
190,0.0
2,13, 1,13, 0, 7, 0.00,60.00,Friday
141,29332447.38397309
190,0.0
2,13, 1,13, 0, 8, 0.00,60.00,Friday
141,29225453.485852398
190,0.0
2,13, 1,13, 0, 9, 0.00,60.00,Friday
141,28906081.820088297
190,0.0
2,13, 1,13, 0,10, 0.00,60.00,Friday
141,29336215.193987526
190,0.0
2,13, 1,13, 0,11, 0.00,60.00,Friday
141,29852526.135657787
190,0.0
2,13, 1,13, 0,12, 0.00,60.00,Friday
141,29845282.744619973
190,0.0
2,13, 1,13, 0,13, 0.00,60.00,Friday
141,29902377.711273193
190,0.0
2,13, 1,13, 0,14, 0.00,60.00,Friday
141,30283196.45917419
190,0.0
2,13, 1,13, 0,15, 0.00,60.00,Friday
141,30525583.980138913
190,0.0
2,13, 1,13, 0,16, 0.00,60.00,Friday
141,30518163.39436591
190,0.0
2,13, 1,13, 0,17, 0.00,60.00,Friday
141,30460983.856195115
190,0.0
2,13, 1,13, 0,18, 0.00,60.00,Friday
141,30444085.50463561
190,0.0
2,13, 1,13, 0,19, 0.00,60.00,Friday
141,30806476.029992376
190,0.0
2,13, 1,13, 0,20, 0.00,60.00,Friday
141,31429177.949973155
190,0.0
2,13, 1,13, 0,21, 0.00,60.00,Friday
141,32013401.965802804
190,0.0
2,13, 1,13, 0,22, 0.00,60.00,Friday
141,32465097.20366034
190,0.0
2,13, 1,13, 0,23, 0.00,60.00,Friday
141,32522813.755517703
190,0.0
2,13, 1,13, 0,24, 0.00,60.00,Friday
141,34196412.07377371
190,0.0
2,14, 1,14, 0, 1, 0.00,60.00,Saturday
141,35446650.47599658
190,0.0
2,14, 1,14, 0, 2, 0.00,60.00,Saturday
141,35289251.71419766
190,0.0
2,14, 1,14, 0, 3, 0.00,60.00,Saturday
141,35597440.04981978
190,0.0
2,14, 1,14, 0, 4, 0.00,60.00,Saturday
141,35638824.73354215
190,0.0
2,14, 1,14, 0, 5, 0.00,60.00,Saturday
141,35767344.083312534
190,0.0
2,14, 1,14, 0, 6, 0.00,60.00,Saturday
141,36984294.12970891
190,0.0
2,14, 1,14, 0, 7, 0.00,60.00,Saturday
141,37977904.5131186
190,0.0
2,14, 1,14, 0, 8, 0.00,60.00,Saturday
141,37979811.94610269
190,0.0
2,14, 1,14, 0, 9, 0.00,60.00,Saturday
141,38700792.162669085
190,0.0
2,14, 1,14, 0,10, 0.00,60.00,Saturday
141,39593023.79803583
190,0.0
2,14, 1,14, 0,11, 0.00,60.00,Saturday
141,39675126.42077271
190,0.0
2,14, 1,14, 0,12, 0.00,60.00,Saturday
141,39591736.43608326
190,0.0
2,14, 1,14, 0,13, 0.00,60.00,Saturday
141,39178613.3131641
190,0.0
2,14, 1,14, 0,14, 0.00,60.00,Saturday
141,38059529.79147415
190,0.0
2,14, 1,14, 0,15, 0.00,60.00,Saturday
141,37922450.37980298
190,0.0
2,14, 1,14, 0,16, 0.00,60.00,Saturday
141,38135819.58180696
190,0.0
2,14, 1,14, 0,17, 0.00,60.00,Saturday
141,38531249.65695975
190,0.0
2,14, 1,14, 0,18, 0.00,60.00,Saturday
141,39406706.18349901
190,0.0
2,14, 1,14, 0,19, 0.00,60.00,Saturday
141,39497118.85694864
190,0.0
2,14, 1,14, 0,20, 0.00,60.00,Saturday
141,39786981.00532803
190,0.0
2,14, 1,14, 0,21, 0.00,60.00,Saturday
141,39852217.18511816
190,0.0
2,14, 1,14, 0,22, 0.00,60.00,Saturday
141,39811670.285779014
190,0.0
2,14, 1,14, 0,23, 0.00,60.00,Saturday
141,39871020.57872093
190,0.0
2,14, 1,14, 0,24, 0.00,60.00,Saturday
141,40050533.24554581
190,0.0
2,15, 1,15, 0, 1, 0.00,60.00,Sunday
141,39745253.91599161
190,0.0
2,15, 1,15, 0, 2, 0.00,60.00,Sunday
141,38642082.11255991
190,0.0
2,15, 1,15, 0, 3, 0.00,60.00,Sunday
141,38148610.68915416
190,0.0
2,15, 1,15, 0, 4, 0.00,60.00,Sunday
141,37767069.41491073
190,0.0
2,15, 1,15, 0, 5, 0.00,60.00,Sunday
141,36924096.44326904
190,0.0
2,15, 1,15, 0, 6, 0.00,60.00,Sunday
141,35957083.10680495
190,0.0
2,15, 1,15, 0, 7, 0.00,60.00,Sunday
141,34931936.39217146
190,0.0
2,15, 1,15, 0, 8, 0.00,60.00,Sunday
141,34139868.77251906
190,0.0
2,15, 1,15, 0, 9, 0.00,60.00,Sunday
141,33435102.37674699
190,0.0
2,15, 1,15, 0,10, 0.00,60.00,Sunday
141,33058562.422917455
190,0.0
2,15, 1,15, 0,11, 0.00,60.00,Sunday
141,33166115.39550062
190,0.0
2,15, 1,15, 0,12, 0.00,60.00,Sunday
141,33971066.92164353
190,0.0
2,15, 1,15, 0,13, 0.00,60.00,Sunday
141,34463927.07054762
190,0.0
2,15, 1,15, 0,14, 0.00,60.00,Sunday
141,34486466.92743747
190,0.0
2,15, 1,15, 0,15, 0.00,60.00,Sunday
141,34366966.68047663
190,0.0
2,15, 1,15, 0,16, 0.00,60.00,Sunday
141,33895777.6320946
190,0.0
2,15, 1,15, 0,17, 0.00,60.00,Sunday
141,33581132.06853531
190,0.0
2,15, 1,15, 0,18, 0.00,60.00,Sunday
141,33575453.49505205
190,0.0
2,15, 1,15, 0,19, 0.00,60.00,Sunday
141,33694206.22972685
190,0.0
2,15, 1,15, 0,20, 0.00,60.00,Sunday
141,33869467.371428795
190,0.0
2,15, 1,15, 0,21, 0.00,60.00,Sunday
141,34361629.77169058
190,0.0
2,15, 1,15, 0,22, 0.00,60.00,Sunday
141,34602491.77817954
190,0.0
2,15, 1,15, 0,23, 0.00,60.00,Sunday
141,34682818.403790295
190,0.0
2,15, 1,15, 0,24, 0.00,60.00,Sunday
141,34918276.6678582
190,0.0
2,16, 1,16, 0, 1, 0.00,60.00,Monday
141,35553484.803954616
190,0.0
2,16, 1,16, 0, 2, 0.00,60.00,Monday
141,36184397.8304582
190,0.0
2,16, 1,16, 0, 3, 0.00,60.00,Monday
141,36622041.69197544
190,0.0
2,16, 1,16, 0, 4, 0.00,60.00,Monday
141,36971049.877175756
190,0.0
2,16, 1,16, 0, 5, 0.00,60.00,Monday
141,37380522.63788235
190,0.0
2,16, 1,16, 0, 6, 0.00,60.00,Monday
141,37719001.42705031
190,0.0
2,16, 1,16, 0, 7, 0.00,60.00,Monday
141,38297716.52731303
190,0.0
2,16, 1,16, 0, 8, 0.00,60.00,Monday
141,38834746.36255963
190,0.0
2,16, 1,16, 0, 9, 0.00,60.00,Monday
141,39094692.3935532
190,0.0
2,16, 1,16, 0,10, 0.00,60.00,Monday
141,39157838.86740216
190,0.0
2,16, 1,16, 0,11, 0.00,60.00,Monday
141,38154718.613307826
190,0.0
2,16, 1,16, 0,12, 0.00,60.00,Monday
141,37244563.48624067
190,0.0
2,16, 1,16, 0,13, 0.00,60.00,Monday
141,36456031.31490957
190,0.0
2,16, 1,16, 0,14, 0.00,60.00,Monday
141,35836387.483238384
190,0.0
2,16, 1,16, 0,15, 0.00,60.00,Monday
141,35668794.467627
190,0.0
2,16, 1,16, 0,16, 0.00,60.00,Monday
141,35835393.240747645
190,0.0
2,16, 1,16, 0,17, 0.00,60.00,Monday
141,36369478.07890966
190,0.0
2,16, 1,16, 0,18, 0.00,60.00,Monday
141,37407400.224909954
190,0.0
2,16, 1,16, 0,19, 0.00,60.00,Monday
141,38480123.162864484
190,0.0
2,16, 1,16, 0,20, 0.00,60.00,Monday
141,39006672.563145585
190,0.0
2,16, 1,16, 0,21, 0.00,60.00,Monday
141,39411600.18853468
190,0.0
2,16, 1,16, 0,22, 0.00,60.00,Monday
141,39778550.99921331
190,0.0
2,16, 1,16, 0,23, 0.00,60.00,Monday
141,40344103.12448948
190,0.0
2,16, 1,16, 0,24, 0.00,60.00,Monday
141,40458783.06448187
190,0.0
2,17, 1,17, 0, 1, 0.00,60.00,Tuesday
141,40654515.50403659
190,0.0
2,17, 1,17, 0, 2, 0.00,60.00,Tuesday
141,41459502.61451622
190,0.0
2,17, 1,17, 0, 3, 0.00,60.00,Tuesday
141,42222864.83190342
190,0.0
2,17, 1,17, 0, 4, 0.00,60.00,Tuesday
141,42932498.137645036
190,0.0
2,17, 1,17, 0, 5, 0.00,60.00,Tuesday
141,43701157.698703885
190,0.0
2,17, 1,17, 0, 6, 0.00,60.00,Tuesday
141,44464580.42055781
190,0.0
2,17, 1,17, 0, 7, 0.00,60.00,Tuesday
141,44994107.838531524
190,0.0
2,17, 1,17, 0, 8, 0.00,60.00,Tuesday
141,45364033.912215985
190,0.0
2,17, 1,17, 0, 9, 0.00,60.00,Tuesday
141,45590998.154334724
190,0.0
2,17, 1,17, 0,10, 0.00,60.00,Tuesday
141,44565562.14489002
190,0.0
2,17, 1,17, 0,11, 0.00,60.00,Tuesday
141,42955142.79471266
190,0.0
2,17, 1,17, 0,12, 0.00,60.00,Tuesday
141,41535187.711244814
190,0.0
2,17, 1,17, 0,13, 0.00,60.00,Tuesday
141,40622157.4408402
190,0.0
2,17, 1,17, 0,14, 0.00,60.00,Tuesday
141,40226931.92765691
190,0.0
2,17, 1,17, 0,15, 0.00,60.00,Tuesday
141,40148795.16610125
190,0.0
2,17, 1,17, 0,16, 0.00,60.00,Tuesday
141,40543931.986597545
190,0.0
2,17, 1,17, 0,17, 0.00,60.00,Tuesday
141,40731361.96263727
190,0.0
2,17, 1,17, 0,18, 0.00,60.00,Tuesday
141,40331577.76428403
190,0.0
2,17, 1,17, 0,19, 0.00,60.00,Tuesday
141,39882923.54155831
190,0.0
2,17, 1,17, 0,20, 0.00,60.00,Tuesday
141,39771459.26681983
190,0.0
2,17, 1,17, 0,21, 0.00,60.00,Tuesday
141,39886839.41508638
190,0.0
2,17, 1,17, 0,22, 0.00,60.00,Tuesday
141,39868685.108775936
190,0.0
2,17, 1,17, 0,23, 0.00,60.00,Tuesday
141,39910530.63195485
190,0.0
2,17, 1,17, 0,24, 0.00,60.00,Tuesday
141,40340077.65877144
190,0.0
2,18, 1,18, 0, 1, 0.00,60.00,Wednesday
141,40685328.73136862
190,0.0
2,18, 1,18, 0, 2, 0.00,60.00,Wednesday
141,41042581.33266453
190,0.0
2,18, 1,18, 0, 3, 0.00,60.00,Wednesday
141,41349855.17850239
190,0.0
2,18, 1,18, 0, 4, 0.00,60.00,Wednesday
141,41591909.23208693
190,0.0
2,18, 1,18, 0, 5, 0.00,60.00,Wednesday
141,41867880.08433054
190,0.0
2,18, 1,18, 0, 6, 0.00,60.00,Wednesday
141,42180219.67515721
190,0.0
2,18, 1,18, 0, 7, 0.00,60.00,Wednesday
141,42959219.51904609
190,0.0
2,18, 1,18, 0, 8, 0.00,60.00,Wednesday
141,43276055.67075059
190,0.0
2,18, 1,18, 0, 9, 0.00,60.00,Wednesday
141,43480612.311611116
190,0.0
2,18, 1,18, 0,10, 0.00,60.00,Wednesday
141,43530155.02688539
190,0.0
2,18, 1,18, 0,11, 0.00,60.00,Wednesday
141,43011582.79075475
190,0.0
2,18, 1,18, 0,12, 0.00,60.00,Wednesday
141,42608471.78939888
190,0.0
2,18, 1,18, 0,13, 0.00,60.00,Wednesday
141,42830534.99783514
190,0.0
2,18, 1,18, 0,14, 0.00,60.00,Wednesday
141,43252371.98112165
190,0.0
2,18, 1,18, 0,15, 0.00,60.00,Wednesday
141,43430059.58299668
190,0.0
2,18, 1,18, 0,16, 0.00,60.00,Wednesday
141,43857272.55640034
190,0.0
2,18, 1,18, 0,17, 0.00,60.00,Wednesday
141,44023666.743460536
190,0.0
2,18, 1,18, 0,18, 0.00,60.00,Wednesday
141,43751560.33368704
190,0.0
2,18, 1,18, 0,19, 0.00,60.00,Wednesday
141,43615499.9260597
190,0.0
2,18, 1,18, 0,20, 0.00,60.00,Wednesday
141,43696306.93975115
190,0.0
2,18, 1,18, 0,21, 0.00,60.00,Wednesday
141,43766585.23836477
190,0.0
2,18, 1,18, 0,22, 0.00,60.00,Wednesday
141,43940785.80549239
190,0.0
2,18, 1,18, 0,23, 0.00,60.00,Wednesday
141,44066074.59544515
190,0.0
2,18, 1,18, 0,24, 0.00,60.00,Wednesday
141,44227310.59099278
190,0.0
2,19, 1,19, 0, 1, 0.00,60.00,Thursday
141,44035085.27039255
190,0.0
2,19, 1,19, 0, 2, 0.00,60.00,Thursday
141,44120790.70422989
190,0.0