Program Version,EnergyPlus, Version 24.2.0-94a887817b, YMD=2025.04.24 13:22
1,5,Environment Title[],Latitude[deg],Longitude[deg],Time Zone[],Elevation[m]
2,8,Day of Simulation[],Month[],Day of Month[],DST Indicator[1=yes 0=no],Hour[],StartMinute[],EndMinute[],DayType
3,5,Cumulative Day of Simulation[],Month[],Day of Month[],DST Indicator[1=yes 0=no],DayType  ! When Daily Report Variables Requested
4,2,Cumulative Days of Simulation[],Month[]  ! When Monthly Report Variables Requested
5,1,Cumulative Days of Simulation[] ! When Run Period Report Variables Requested
6,1,Calendar Year of Simulation[] ! When Annual Report Variables Requested
141,1,ZONE_0599100100003450 IDEAL LOADS AIR SYSTEM,Zone Ideal Loads Supply Air Total Heating Energy [J] !Hourly
190,1,ZONE_0599100100003450 IDEAL LOADS AIR SYSTEM,Zone Ideal Loads Supply Air Total Cooling Energy [J] !Hourly
End of Data Dictionary
1,RUN PERIOD 1,  51.96,   4.45,   1.00,  -4.50
2,1, 1, 1, 0, 1, 0.00,60.00,Sunday
141,55217308.30160873
190,0.0
2,1, 1, 1, 0, 2, 0.00,60.00,Sunday
141,57280094.139852196
190,0.0
2,1, 1, 1, 0, 3, 0.00,60.00,Sunday
141,57249019.760521084
190,0.0
2,1, 1, 1, 0, 4, 0.00,60.00,Sunday
141,58767717.78304041
190,0.0
2,1, 1, 1, 0, 5, 0.00,60.00,Sunday
141,59797847.05756969
190,0.0
2,1, 1, 1, 0, 6, 0.00,60.00,Sunday
141,59900556.84405521
190,0.0
2,1, 1, 1, 0, 7, 0.00,60.00,Sunday
141,60073089.12810429
190,0.0
2,1, 1, 1, 0, 8, 0.00,60.00,Sunday
141,59919444.31123052
190,0.0
2,1, 1, 1, 0, 9, 0.00,60.00,Sunday
141,59782136.47756091
190,0.0
2,1, 1, 1, 0,10, 0.00,60.00,Sunday
141,59273939.70226955
190,0.0
2,1, 1, 1, 0,11, 0.00,60.00,Sunday
141,57985744.4005561
190,0.0
2,1, 1, 1, 0,12, 0.00,60.00,Sunday
141,55909015.25466014
190,0.0
2,1, 1, 1, 0,13, 0.00,60.00,Sunday
141,54885440.81383419
190,0.0
2,1, 1, 1, 0,14, 0.00,60.00,Sunday
141,53478376.55348549
190,0.0
2,1, 1, 1, 0,15, 0.00,60.00,Sunday
141,52501983.091950625
190,0.0
2,1, 1, 1, 0,16, 0.00,60.00,Sunday
141,53450857.14342967
190,0.0
2,1, 1, 1, 0,17, 0.00,60.00,Sunday
141,54647957.79527706
190,0.0
2,1, 1, 1, 0,18, 0.00,60.00,Sunday
141,55030322.71963193
190,0.0
2,1, 1, 1, 0,19, 0.00,60.00,Sunday
141,55366917.555267826
190,0.0
2,1, 1, 1, 0,20, 0.00,60.00,Sunday
141,55305774.296892725
190,0.0
2,1, 1, 1, 0,21, 0.00,60.00,Sunday
141,55109310.712252654
190,0.0
2,1, 1, 1, 0,22, 0.00,60.00,Sunday
141,55238900.36813239
190,0.0
2,1, 1, 1, 0,23, 0.00,60.00,Sunday
141,53795298.46766393
190,0.0
2,1, 1, 1, 0,24, 0.00,60.00,Sunday
141,52720540.10477296
190,0.0
2,2, 1, 2, 0, 1, 0.00,60.00,Monday
141,52906025.74937664
190,0.0
2,2, 1, 2, 0, 2, 0.00,60.00,Monday
141,51446842.12133776
190,0.0
2,2, 1, 2, 0, 3, 0.00,60.00,Monday
141,50324898.33031232
190,0.0
2,2, 1, 2, 0, 4, 0.00,60.00,Monday
141,49189487.536793955
190,0.0
2,2, 1, 2, 0, 5, 0.00,60.00,Monday
141,46713744.935207725
190,0.0
2,2, 1, 2, 0, 6, 0.00,60.00,Monday
141,45537040.0628631
190,0.0
2,2, 1, 2, 0, 7, 0.00,60.00,Monday
141,43693700.24181573
190,0.0
2,2, 1, 2, 0, 8, 0.00,60.00,Monday
141,41451102.93678948
190,0.0
2,2, 1, 2, 0, 9, 0.00,60.00,Monday
141,42165005.74363332
190,0.0
2,2, 1, 2, 0,10, 0.00,60.00,Monday
141,43868902.97386327
190,0.0
2,2, 1, 2, 0,11, 0.00,60.00,Monday
141,45038888.997350305
190,0.0
2,2, 1, 2, 0,12, 0.00,60.00,Monday
141,44108632.56203274
190,0.0
2,2, 1, 2, 0,13, 0.00,60.00,Monday
141,43742186.03046904
190,0.0
2,2, 1, 2, 0,14, 0.00,60.00,Monday
141,44933529.061219916
190,0.0
2,2, 1, 2, 0,15, 0.00,60.00,Monday
141,45444616.56030677
190,0.0
2,2, 1, 2, 0,16, 0.00,60.00,Monday
141,46536373.09873814
190,0.0
2,2, 1, 2, 0,17, 0.00,60.00,Monday
141,47591073.625802465
190,0.0
2,2, 1, 2, 0,18, 0.00,60.00,Monday
141,47755188.19589587
190,0.0
2,2, 1, 2, 0,19, 0.00,60.00,Monday
141,48899033.08745896
190,0.0
2,2, 1, 2, 0,20, 0.00,60.00,Monday
141,49936487.45065622
190,0.0
2,2, 1, 2, 0,21, 0.00,60.00,Monday
141,50056721.32383884
190,0.0
2,2, 1, 2, 0,22, 0.00,60.00,Monday
141,49962568.28775435
190,0.0
2,2, 1, 2, 0,23, 0.00,60.00,Monday
141,49940745.35387809
190,0.0
2,2, 1, 2, 0,24, 0.00,60.00,Monday
141,49942317.87051734
190,0.0
2,3, 1, 3, 0, 1, 0.00,60.00,Tuesday
141,49982913.23726961
190,0.0
2,3, 1, 3, 0, 2, 0.00,60.00,Tuesday
141,49924442.20338813
190,0.0
2,3, 1, 3, 0, 3, 0.00,60.00,Tuesday
141,49834763.82790924
190,0.0
2,3, 1, 3, 0, 4, 0.00,60.00,Tuesday
141,49973178.68858114
190,0.0
2,3, 1, 3, 0, 5, 0.00,60.00,Tuesday
141,51314391.423846565
190,0.0
2,3, 1, 3, 0, 6, 0.00,60.00,Tuesday
141,52173535.392531306
190,0.0
2,3, 1, 3, 0, 7, 0.00,60.00,Tuesday
141,52573374.23037176
190,0.0
2,3, 1, 3, 0, 8, 0.00,60.00,Tuesday
141,52429092.03605296
190,0.0
2,3, 1, 3, 0, 9, 0.00,60.00,Tuesday
141,53533085.39485899
190,0.0
2,3, 1, 3, 0,10, 0.00,60.00,Tuesday
141,54058612.2159009
190,0.0
2,3, 1, 3, 0,11, 0.00,60.00,Tuesday
141,54184466.01448649
190,0.0
2,3, 1, 3, 0,12, 0.00,60.00,Tuesday
141,54516564.54284263
190,0.0
2,3, 1, 3, 0,13, 0.00,60.00,Tuesday
141,56235897.505780794
190,0.0
2,3, 1, 3, 0,14, 0.00,60.00,Tuesday
141,57178073.68638879
190,0.0
2,3, 1, 3, 0,15, 0.00,60.00,Tuesday
141,56966472.99195194
190,0.0
2,3, 1, 3, 0,16, 0.00,60.00,Tuesday
141,56776382.45362621
190,0.0
2,3, 1, 3, 0,17, 0.00,60.00,Tuesday
141,56832856.61979789
190,0.0
2,3, 1, 3, 0,18, 0.00,60.00,Tuesday
141,56973713.96612741
190,0.0
2,3, 1, 3, 0,19, 0.00,60.00,Tuesday
141,56696997.68078685
190,0.0
2,3, 1, 3, 0,20, 0.00,60.00,Tuesday
141,55341799.254219465
190,0.0
2,3, 1, 3, 0,21, 0.00,60.00,Tuesday
141,51678496.658107616
190,0.0
2,3, 1, 3, 0,22, 0.00,60.00,Tuesday
141,49713372.90604068
190,0.0
2,3, 1, 3, 0,23, 0.00,60.00,Tuesday
141,51115050.461454004
190,0.0
2,3, 1, 3, 0,24, 0.00,60.00,Tuesday
141,53506296.90509937
190,0.0
2,4, 1, 4, 0, 1, 0.00,60.00,Wednesday
141,54698369.563091844
190,0.0
2,4, 1, 4, 0, 2, 0.00,60.00,Wednesday
141,54511284.09423303
190,0.0
2,4, 1, 4, 0, 3, 0.00,60.00,Wednesday
141,54150859.469681785
190,0.0
2,4, 1, 4, 0, 4, 0.00,60.00,Wednesday
141,54553135.19844248
190,0.0
2,4, 1, 4, 0, 5, 0.00,60.00,Wednesday
141,56138427.650120765
190,0.0
2,4, 1, 4, 0, 6, 0.00,60.00,Wednesday
141,55717674.6256849
190,0.0
2,4, 1, 4, 0, 7, 0.00,60.00,Wednesday
141,55635976.61469587
190,0.0
2,4, 1, 4, 0, 8, 0.00,60.00,Wednesday
141,56267922.451156355
190,0.0
2,4, 1, 4, 0, 9, 0.00,60.00,Wednesday
141,56723089.10360591
190,0.0
2,4, 1, 4, 0,10, 0.00,60.00,Wednesday
141,57090779.30277683
190,0.0
2,4, 1, 4, 0,11, 0.00,60.00,Wednesday
141,54213832.7991403
190,0.0
2,4, 1, 4, 0,12, 0.00,60.00,Wednesday
141,49346757.064633295
190,0.0
2,4, 1, 4, 0,13, 0.00,60.00,Wednesday
141,48038317.65043263
190,0.0
2,4, 1, 4, 0,14, 0.00,60.00,Wednesday
141,47862473.6274119
190,0.0
2,4, 1, 4, 0,15, 0.00,60.00,Wednesday
141,47398260.625746794
190,0.0
2,4, 1, 4, 0,16, 0.00,60.00,Wednesday
141,49400898.2931996
190,0.0
2,4, 1, 4, 0,17, 0.00,60.00,Wednesday
141,52984686.53130177
190,0.0
2,4, 1, 4, 0,18, 0.00,60.00,Wednesday
141,56088007.83317304
190,0.0
2,4, 1, 4, 0,19, 0.00,60.00,Wednesday
141,59238257.70049626
190,0.0
2,4, 1, 4, 0,20, 0.00,60.00,Wednesday
141,60880240.13138956
190,0.0
2,4, 1, 4, 0,21, 0.00,60.00,Wednesday
141,61604270.50156669
190,0.0
2,4, 1, 4, 0,22, 0.00,60.00,Wednesday
141,63096753.79617069
190,0.0
2,4, 1, 4, 0,23, 0.00,60.00,Wednesday
141,62378861.76053958
190,0.0
2,4, 1, 4, 0,24, 0.00,60.00,Wednesday
141,61196406.49621326
190,0.0
2,5, 1, 5, 0, 1, 0.00,60.00,Thursday
141,61540000.96048352
190,0.0
2,5, 1, 5, 0, 2, 0.00,60.00,Thursday
141,60702624.090777054
190,0.0
2,5, 1, 5, 0, 3, 0.00,60.00,Thursday
141,59897990.65180002
190,0.0
2,5, 1, 5, 0, 4, 0.00,60.00,Thursday
141,60004018.699330226
190,0.0
2,5, 1, 5, 0, 5, 0.00,60.00,Thursday
141,59121590.477194875
190,0.0
2,5, 1, 5, 0, 6, 0.00,60.00,Thursday
141,58747861.42338502
190,0.0
2,5, 1, 5, 0, 7, 0.00,60.00,Thursday
141,59317015.46717787
190,0.0
2,5, 1, 5, 0, 8, 0.00,60.00,Thursday
141,59825162.401908726
190,0.0
2,5, 1, 5, 0, 9, 0.00,60.00,Thursday
141,60017010.60923222
190,0.0
2,5, 1, 5, 0,10, 0.00,60.00,Thursday
141,60972801.88817217
190,0.0
2,5, 1, 5, 0,11, 0.00,60.00,Thursday
141,60736948.61794838
190,0.0
2,5, 1, 5, 0,12, 0.00,60.00,Thursday
141,58661334.87584281
190,0.0
2,5, 1, 5, 0,13, 0.00,60.00,Thursday
141,57941466.713113956
190,0.0
2,5, 1, 5, 0,14, 0.00,60.00,Thursday
141,56455623.021792546
190,0.0
2,5, 1, 5, 0,15, 0.00,60.00,Thursday
141,55279068.91783262
190,0.0
2,5, 1, 5, 0,16, 0.00,60.00,Thursday
141,56263101.62469425
190,0.0
2,5, 1, 5, 0,17, 0.00,60.00,Thursday
141,56031315.20176228
190,0.0
2,5, 1, 5, 0,18, 0.00,60.00,Thursday
141,55395148.76234976
190,0.0
2,5, 1, 5, 0,19, 0.00,60.00,Thursday
141,55767102.21857469
190,0.0
2,5, 1, 5, 0,20, 0.00,60.00,Thursday
141,55704037.78935087
190,0.0
2,5, 1, 5, 0,21, 0.00,60.00,Thursday
141,55492996.27429377
190,0.0
2,5, 1, 5, 0,22, 0.00,60.00,Thursday
141,55546651.03124177
190,0.0
2,5, 1, 5, 0,23, 0.00,60.00,Thursday
141,55872595.888303444
190,0.0
2,5, 1, 5, 0,24, 0.00,60.00,Thursday
141,56226540.373627424
190,0.0
2,6, 1, 6, 0, 1, 0.00,60.00,Friday
141,56464095.71455451
190,0.0
2,6, 1, 6, 0, 2, 0.00,60.00,Friday
141,56691312.728060044
190,0.0
2,6, 1, 6, 0, 3, 0.00,60.00,Friday
141,58089760.50174068
190,0.0
2,6, 1, 6, 0, 4, 0.00,60.00,Friday
141,59443920.578660555
190,0.0
2,6, 1, 6, 0, 5, 0.00,60.00,Friday
141,60154709.723112024
190,0.0
2,6, 1, 6, 0, 6, 0.00,60.00,Friday
141,61017173.20615281
190,0.0
2,6, 1, 6, 0, 7, 0.00,60.00,Friday
141,62286111.16065058
190,0.0
2,6, 1, 6, 0, 8, 0.00,60.00,Friday
141,63484526.057087496
190,0.0
2,6, 1, 6, 0, 9, 0.00,60.00,Friday
141,64925394.31578513
190,0.0
2,6, 1, 6, 0,10, 0.00,60.00,Friday
141,65779968.52746871
190,0.0
2,6, 1, 6, 0,11, 0.00,60.00,Friday
141,64821417.064783886
190,0.0
2,6, 1, 6, 0,12, 0.00,60.00,Friday
141,63323715.58211999
190,0.0
2,6, 1, 6, 0,13, 0.00,60.00,Friday
141,62613421.41164407
190,0.0
2,6, 1, 6, 0,14, 0.00,60.00,Friday
141,62326644.24176212
190,0.0
2,6, 1, 6, 0,15, 0.00,60.00,Friday
141,61924997.46613906
190,0.0
2,6, 1, 6, 0,16, 0.00,60.00,Friday
141,60989020.10101985
190,0.0
2,6, 1, 6, 0,17, 0.00,60.00,Friday
141,60021912.98774281
190,0.0
2,6, 1, 6, 0,18, 0.00,60.00,Friday
141,59563462.236553684
190,0.0
2,6, 1, 6, 0,19, 0.00,60.00,Friday
141,59027012.07037002
190,0.0
2,6, 1, 6, 0,20, 0.00,60.00,Friday
141,57714060.84040284
190,0.0
2,6, 1, 6, 0,21, 0.00,60.00,Friday
141,54420866.91899985
190,0.0
2,6, 1, 6, 0,22, 0.00,60.00,Friday
141,50478196.989251085
190,0.0
2,6, 1, 6, 0,23, 0.00,60.00,Friday
141,48718521.12942897
190,0.0
2,6, 1, 6, 0,24, 0.00,60.00,Friday
141,49112590.70134856
190,0.0
2,7, 1, 7, 0, 1, 0.00,60.00,Saturday
141,52244377.90067267
190,0.0
2,7, 1, 7, 0, 2, 0.00,60.00,Saturday
141,55365370.83483585
190,0.0
2,7, 1, 7, 0, 3, 0.00,60.00,Saturday
141,54923514.968901694
190,0.0
2,7, 1, 7, 0, 4, 0.00,60.00,Saturday
141,55173056.59387463
190,0.0
2,7, 1, 7, 0, 5, 0.00,60.00,Saturday
141,57300770.82195573
190,0.0
2,7, 1, 7, 0, 6, 0.00,60.00,Saturday
141,58963052.467041366
190,0.0
2,7, 1, 7, 0, 7, 0.00,60.00,Saturday
141,59932567.44947747
190,0.0
2,7, 1, 7, 0, 8, 0.00,60.00,Saturday
141,60403629.528384626
190,0.0
2,7, 1, 7, 0, 9, 0.00,60.00,Saturday
141,59197850.200145416
190,0.0
2,7, 1, 7, 0,10, 0.00,60.00,Saturday
141,58115611.95250631
190,0.0
2,7, 1, 7, 0,11, 0.00,60.00,Saturday
141,54965821.42398477
190,0.0
2,7, 1, 7, 0,12, 0.00,60.00,Saturday
141,51795105.14610194
190,0.0
2,7, 1, 7, 0,13, 0.00,60.00,Saturday
141,49499895.59005746
190,0.0
2,7, 1, 7, 0,14, 0.00,60.00,Saturday
141,48363275.30353219
190,0.0
2,7, 1, 7, 0,15, 0.00,60.00,Saturday
141,48916053.20419218
190,0.0
2,7, 1, 7, 0,16, 0.00,60.00,Saturday
141,50038394.273207225
190,0.0
2,7, 1, 7, 0,17, 0.00,60.00,Saturday
141,50988506.34951026
190,0.0
2,7, 1, 7, 0,18, 0.00,60.00,Saturday
141,52587932.622850955
190,0.0
2,7, 1, 7, 0,19, 0.00,60.00,Saturday
141,54078251.66833983
190,0.0
2,7, 1, 7, 0,20, 0.00,60.00,Saturday
141,55504449.66729804
190,0.0
2,7, 1, 7, 0,21, 0.00,60.00,Saturday
141,56516657.07244055
190,0.0
2,7, 1, 7, 0,22, 0.00,60.00,Saturday
141,56562758.6626427
190,0.0
2,7, 1, 7, 0,23, 0.00,60.00,Saturday
141,56731726.57053432
190,0.0
2,7, 1, 7, 0,24, 0.00,60.00,Saturday
141,56619385.519339815
190,0.0
2,8, 1, 8, 0, 1, 0.00,60.00,Sunday
141,55655539.35939869
190,0.0
2,8, 1, 8, 0, 2, 0.00,60.00,Sunday
141,54530435.75693434
190,0.0
2,8, 1, 8, 0, 3, 0.00,60.00,Sunday
141,53508554.32447696
190,0.0
2,8, 1, 8, 0, 4, 0.00,60.00,Sunday
141,52062495.876216434
190,0.0
2,8, 1, 8, 0, 5, 0.00,60.00,Sunday
141,50313310.666320175
190,0.0
2,8, 1, 8, 0, 6, 0.00,60.00,Sunday
141,48997795.00574263
190,0.0
2,8, 1, 8, 0, 7, 0.00,60.00,Sunday
141,47993054.38570216
190,0.0
2,8, 1, 8, 0, 8, 0.00,60.00,Sunday
141,47133248.10906461
190,0.0
2,8, 1, 8, 0, 9, 0.00,60.00,Sunday
141,46238762.28983687
190,0.0
2,8, 1, 8, 0,10, 0.00,60.00,Sunday
141,45949757.340151206
190,0.0
2,8, 1, 8, 0,11, 0.00,60.00,Sunday
141,45730919.275507405
190,0.0
2,8, 1, 8, 0,12, 0.00,60.00,Sunday
141,45912608.10901065
190,0.0
2,8, 1, 8, 0,13, 0.00,60.00,Sunday
141,45753107.910842076
190,0.0
2,8, 1, 8, 0,14, 0.00,60.00,Sunday
141,45968928.35306692
190,0.0
2,8, 1, 8, 0,15, 0.00,60.00,Sunday
141,47900111.76751267
190,0.0
2,8, 1, 8, 0,16, 0.00,60.00,Sunday
141,49293014.15264546
190,0.0
2,8, 1, 8, 0,17, 0.00,60.00,Sunday
141,49366766.55926436
190,0.0
2,8, 1, 8, 0,18, 0.00,60.00,Sunday
141,49982757.25544298
190,0.0
2,8, 1, 8, 0,19, 0.00,60.00,Sunday
141,49649165.195989415
190,0.0
2,8, 1, 8, 0,20, 0.00,60.00,Sunday
141,48483207.81061698
190,0.0
2,8, 1, 8, 0,21, 0.00,60.00,Sunday
141,47642789.42439478
190,0.0
2,8, 1, 8, 0,22, 0.00,60.00,Sunday
141,47875958.549848676
190,0.0
2,8, 1, 8, 0,23, 0.00,60.00,Sunday
141,48094316.12699306
190,0.0
2,8, 1, 8, 0,24, 0.00,60.00,Sunday
141,48779903.96592297
190,0.0
2,9, 1, 9, 0, 1, 0.00,60.00,Monday
141,48907871.20404203
190,0.0
2,9, 1, 9, 0, 2, 0.00,60.00,Monday
141,48983501.59236312
190,0.0
2,9, 1, 9, 0, 3, 0.00,60.00,Monday
141,48812299.214265175
190,0.0
2,9, 1, 9, 0, 4, 0.00,60.00,Monday
141,48386080.169729844
190,0.0
2,9, 1, 9, 0, 5, 0.00,60.00,Monday
141,47433776.87876934
190,0.0
2,9, 1, 9, 0, 6, 0.00,60.00,Monday
141,46471229.86290127
190,0.0
2,9, 1, 9, 0, 7, 0.00,60.00,Monday
141,45777859.63397874
190,0.0
2,9, 1, 9, 0, 8, 0.00,60.00,Monday
141,45404128.10922344
190,0.0
2,9, 1, 9, 0, 9, 0.00,60.00,Monday
141,44373699.26369202
190,0.0
2,9, 1, 9, 0,10, 0.00,60.00,Monday
141,41862187.649889275
190,0.0
2,9, 1, 9, 0,11, 0.00,60.00,Monday
141,39724550.531276606
190,0.0
2,9, 1, 9, 0,12, 0.00,60.00,Monday
141,38547001.05538885
190,0.0
2,9, 1, 9, 0,13, 0.00,60.00,Monday
141,37578544.10017046
190,0.0
2,9, 1, 9, 0,14, 0.00,60.00,Monday
141,36878714.32262561
190,0.0
2,9, 1, 9, 0,15, 0.00,60.00,Monday
141,36649017.66368954
190,0.0
2,9, 1, 9, 0,16, 0.00,60.00,Monday
141,37172712.470473155
190,0.0
2,9, 1, 9, 0,17, 0.00,60.00,Monday
141,38899954.072373115
190,0.0
2,9, 1, 9, 0,18, 0.00,60.00,Monday
141,40529759.37228423
190,0.0
2,9, 1, 9, 0,19, 0.00,60.00,Monday
141,40413521.027924135
190,0.0
2,9, 1, 9, 0,20, 0.00,60.00,Monday
141,38169044.71663545
190,0.0
2,9, 1, 9, 0,21, 0.00,60.00,Monday
141,35899468.78567479
190,0.0
2,9, 1, 9, 0,22, 0.00,60.00,Monday
141,34510894.06052497
190,0.0
2,9, 1, 9, 0,23, 0.00,60.00,Monday
141,34258302.06435283
190,0.0
2,9, 1, 9, 0,24, 0.00,60.00,Monday
141,34409512.53274308
190,0.0
2,10, 1,10, 0, 1, 0.00,60.00,Tuesday
141,35045215.09964606
190,0.0
2,10, 1,10, 0, 2, 0.00,60.00,Tuesday
141,35484089.588808455
190,0.0
2,10, 1,10, 0, 3, 0.00,60.00,Tuesday
141,35573049.14755357
190,0.0
2,10, 1,10, 0, 4, 0.00,60.00,Tuesday
141,36288703.07284782
190,0.0
2,10, 1,10, 0, 5, 0.00,60.00,Tuesday
141,36564878.012209624
190,0.0
2,10, 1,10, 0, 6, 0.00,60.00,Tuesday
141,36670128.85645628
190,0.0
2,10, 1,10, 0, 7, 0.00,60.00,Tuesday
141,36792674.67489501
190,0.0
2,10, 1,10, 0, 8, 0.00,60.00,Tuesday
141,36578414.131005704
190,0.0
2,10, 1,10, 0, 9, 0.00,60.00,Tuesday
141,36258593.28016879
190,0.0
2,10, 1,10, 0,10, 0.00,60.00,Tuesday
141,35811139.4680491
190,0.0
2,10, 1,10, 0,11, 0.00,60.00,Tuesday
141,35141073.92768598
190,0.0
2,10, 1,10, 0,12, 0.00,60.00,Tuesday
141,34368785.22088159
190,0.0
2,10, 1,10, 0,13, 0.00,60.00,Tuesday
141,34270627.86444528
190,0.0
2,10, 1,10, 0,14, 0.00,60.00,Tuesday
141,37248904.22978864
190,0.0
2,10, 1,10, 0,15, 0.00,60.00,Tuesday
141,39661851.44777039
190,0.0
2,10, 1,10, 0,16, 0.00,60.00,Tuesday
141,41158491.165462255
190,0.0
2,10, 1,10, 0,17, 0.00,60.00,Tuesday
141,42696071.36572561
190,0.0
2,10, 1,10, 0,18, 0.00,60.00,Tuesday
141,44678672.74071074
190,0.0
2,10, 1,10, 0,19, 0.00,60.00,Tuesday
141,45734607.41773908
190,0.0
2,10, 1,10, 0,20, 0.00,60.00,Tuesday
141,46526955.87369638
190,0.0
2,10, 1,10, 0,21, 0.00,60.00,Tuesday
141,47769501.690740235
190,0.0
2,10, 1,10, 0,22, 0.00,60.00,Tuesday
141,48478647.85802776
190,0.0
2,10, 1,10, 0,23, 0.00,60.00,Tuesday
141,48040972.74599311
190,0.0
2,10, 1,10, 0,24, 0.00,60.00,Tuesday
141,48846217.75562759
190,0.0
2,11, 1,11, 0, 1, 0.00,60.00,Wednesday
141,48971599.952716224
190,0.0
2,11, 1,11, 0, 2, 0.00,60.00,Wednesday
141,49092136.35733273
190,0.0
2,11, 1,11, 0, 3, 0.00,60.00,Wednesday
141,49527847.97600198
190,0.0
2,11, 1,11, 0, 4, 0.00,60.00,Wednesday
141,48897382.597278625
190,0.0
2,11, 1,11, 0, 5, 0.00,60.00,Wednesday
141,48441844.29565931
190,0.0
2,11, 1,11, 0, 6, 0.00,60.00,Wednesday
141,48262635.70534016
190,0.0
2,11, 1,11, 0, 7, 0.00,60.00,Wednesday
141,48422854.43320322
190,0.0
2,11, 1,11, 0, 8, 0.00,60.00,Wednesday
141,48620210.41561896
190,0.0
2,11, 1,11, 0, 9, 0.00,60.00,Wednesday
141,48494223.61423429
190,0.0
2,11, 1,11, 0,10, 0.00,60.00,Wednesday
141,48146646.60654635
190,0.0
2,11, 1,11, 0,11, 0.00,60.00,Wednesday
141,47557471.67725335
190,0.0
2,11, 1,11, 0,12, 0.00,60.00,Wednesday
141,46589092.56109814
190,0.0
2,11, 1,11, 0,13, 0.00,60.00,Wednesday
141,45845426.971312016
190,0.0
2,11, 1,11, 0,14, 0.00,60.00,Wednesday
141,45538251.13572455
190,0.0
2,11, 1,11, 0,15, 0.00,60.00,Wednesday
141,45469073.34724838
190,0.0
2,11, 1,11, 0,16, 0.00,60.00,Wednesday
141,45509759.15780558
190,0.0
2,11, 1,11, 0,17, 0.00,60.00,Wednesday
141,44993154.41243666
190,0.0
2,11, 1,11, 0,18, 0.00,60.00,Wednesday
141,44497318.288459904
190,0.0
2,11, 1,11, 0,19, 0.00,60.00,Wednesday
141,44155687.7848662
190,0.0
2,11, 1,11, 0,20, 0.00,60.00,Wednesday
141,44124864.42047166
190,0.0
2,11, 1,11, 0,21, 0.00,60.00,Wednesday
141,44114303.139230624
190,0.0
2,11, 1,11, 0,22, 0.00,60.00,Wednesday
141,43056351.02861823
190,0.0
2,11, 1,11, 0,23, 0.00,60.00,Wednesday
141,42239221.33998731
190,0.0
2,11, 1,11, 0,24, 0.00,60.00,Wednesday
141,42303065.108839944
190,0.0
2,12, 1,12, 0, 1, 0.00,60.00,Thursday
141,42696959.47436247
190,0.0
2,12, 1,12, 0, 2, 0.00,60.00,Thursday
141,42755077.77241957
190,0.0
2,12, 1,12, 0, 3, 0.00,60.00,Thursday
141,42513151.85433361
190,0.0
2,12, 1,12, 0, 4, 0.00,60.00,Thursday
141,42557173.268533796
190,0.0
2,12, 1,12, 0, 5, 0.00,60.00,Thursday
141,42936934.6375874
190,0.0
2,12, 1,12, 0, 6, 0.00,60.00,Thursday
141,43821447.205066174
190,0.0
2,12, 1,12, 0, 7, 0.00,60.00,Thursday
141,44303930.27510893
190,0.0
2,12, 1,12, 0, 8, 0.00,60.00,Thursday
141,44429089.09574944
190,0.0
2,12, 1,12, 0, 9, 0.00,60.00,Thursday
141,43821729.30437547
190,0.0
2,12, 1,12, 0,10, 0.00,60.00,Thursday
141,42489950.71327208
190,0.0
2,12, 1,12, 0,11, 0.00,60.00,Thursday
141,41476410.06560336
190,0.0
2,12, 1,12, 0,12, 0.00,60.00,Thursday
141,40898902.837623805
190,0.0
2,12, 1,12, 0,13, 0.00,60.00,Thursday
141,40139539.88114459
190,0.0
2,12, 1,12, 0,14, 0.00,60.00,Thursday
141,39318964.24585061
190,0.0
2,12, 1,12, 0,15, 0.00,60.00,Thursday
141,39291433.20044618
190,0.0
2,12, 1,12, 0,16, 0.00,60.00,Thursday
141,39622578.26135505
190,0.0
2,12, 1,12, 0,17, 0.00,60.00,Thursday
141,41235662.80143367
190,0.0
2,12, 1,12, 0,18, 0.00,60.00,Thursday
141,42178107.109419435
190,0.0
2,12, 1,12, 0,19, 0.00,60.00,Thursday
141,41794805.856695525
190,0.0
2,12, 1,12, 0,20, 0.00,60.00,Thursday
141,40898758.20364163
190,0.0
2,12, 1,12, 0,21, 0.00,60.00,Thursday
141,40531374.66392591
190,0.0
2,12, 1,12, 0,22, 0.00,60.00,Thursday
141,39924170.69473592
190,0.0
2,12, 1,12, 0,23, 0.00,60.00,Thursday
141,39695024.00770829
190,0.0
2,12, 1,12, 0,24, 0.00,60.00,Thursday
141,39737146.19043219
190,0.0
2,13, 1,13, 0, 1, 0.00,60.00,Friday
141,39341753.52967816
190,0.0
2,13, 1,13, 0, 2, 0.00,60.00,Friday
141,38980373.32045005
190,0.0
2,13, 1,13, 0, 3, 0.00,60.00,Friday
141,38441337.74592382
190,0.0
2,13, 1,13, 0, 4, 0.00,60.00,Friday
141,38115516.45708117
190,0.0
2,13, 1,13, 0, 5, 0.00,60.00,Friday
141,38086911.56402952
190,0.0
2,13, 1,13, 0, 6, 0.00,60.00,Friday
141,38197112.76515102
190,0.0
2,13, 1,13, 0, 7, 0.00,60.00,Friday
141,38537460.943574384
190,0.0
2,13, 1,13, 0, 8, 0.00,60.00,Friday
141,38562264.0122789
190,0.0
2,13, 1,13, 0, 9, 0.00,60.00,Friday
141,38162661.026655376
190,0.0
2,13, 1,13, 0,10, 0.00,60.00,Friday
141,39170389.61842944
190,0.0
2,13, 1,13, 0,11, 0.00,60.00,Friday
141,40297756.60499814
190,0.0
2,13, 1,13, 0,12, 0.00,60.00,Friday
141,40371177.9888069
190,0.0
2,13, 1,13, 0,13, 0.00,60.00,Friday
141,40504399.59443854
190,0.0
2,13, 1,13, 0,14, 0.00,60.00,Friday
141,41193817.188900106
190,0.0
2,13, 1,13, 0,15, 0.00,60.00,Friday
141,41562417.20603757
190,0.0
2,13, 1,13, 0,16, 0.00,60.00,Friday
141,41407686.05013644
190,0.0
2,13, 1,13, 0,17, 0.00,60.00,Friday
141,41150494.383376755
190,0.0
2,13, 1,13, 0,18, 0.00,60.00,Friday
141,41018608.48311213
190,0.0
2,13, 1,13, 0,19, 0.00,60.00,Friday
141,41664106.76300675
190,0.0
2,13, 1,13, 0,20, 0.00,60.00,Friday
141,42824763.94567824
190,0.0
2,13, 1,13, 0,21, 0.00,60.00,Friday
141,43861450.92867867
190,0.0
2,13, 1,13, 0,22, 0.00,60.00,Friday
141,44513123.56968095
190,0.0
2,13, 1,13, 0,23, 0.00,60.00,Friday
141,44260056.09958613
190,0.0
2,13, 1,13, 0,24, 0.00,60.00,Friday
141,46988450.52854633
190,0.0
2,14, 1,14, 0, 1, 0.00,60.00,Saturday
141,48863724.80144646
190,0.0
2,14, 1,14, 0, 2, 0.00,60.00,Saturday
141,48070995.87754448
190,0.0
2,14, 1,14, 0, 3, 0.00,60.00,Saturday
141,48223883.52419568
190,0.0
2,14, 1,14, 0, 4, 0.00,60.00,Saturday
141,47922403.516365714
190,0.0
2,14, 1,14, 0, 5, 0.00,60.00,Saturday
141,47832942.53507566
190,0.0
2,14, 1,14, 0, 6, 0.00,60.00,Saturday
141,49820941.757065766
190,0.0
2,14, 1,14, 0, 7, 0.00,60.00,Saturday
141,51309578.60036299
190,0.0
2,14, 1,14, 0, 8, 0.00,60.00,Saturday
141,50803441.80229475
190,0.0
2,14, 1,14, 0, 9, 0.00,60.00,Saturday
141,51580907.484524004
190,0.0
2,14, 1,14, 0,10, 0.00,60.00,Saturday
141,52634908.54711473
190,0.0
2,14, 1,14, 0,11, 0.00,60.00,Saturday
141,52168795.27693925
190,0.0
2,14, 1,14, 0,12, 0.00,60.00,Saturday
141,51484674.939877674
190,0.0
2,14, 1,14, 0,13, 0.00,60.00,Saturday
141,50313457.02538305
190,0.0
2,14, 1,14, 0,14, 0.00,60.00,Saturday
141,47961974.77800849
190,0.0
2,14, 1,14, 0,15, 0.00,60.00,Saturday
141,47661378.70065677
190,0.0
2,14, 1,14, 0,16, 0.00,60.00,Saturday
141,48189513.86069884
190,0.0
2,14, 1,14, 0,17, 0.00,60.00,Saturday
141,49133725.291385524
190,0.0
2,14, 1,14, 0,18, 0.00,60.00,Saturday
141,50880483.533020936
190,0.0
2,14, 1,14, 0,19, 0.00,60.00,Saturday
141,50919921.95480211
190,0.0
2,14, 1,14, 0,20, 0.00,60.00,Saturday
141,51153113.27275336
190,0.0
2,14, 1,14, 0,21, 0.00,60.00,Saturday
141,50824118.40108401
190,0.0
2,14, 1,14, 0,22, 0.00,60.00,Saturday
141,50217777.02359111
190,0.0
2,14, 1,14, 0,23, 0.00,60.00,Saturday
141,49779847.60465952
190,0.0
2,14, 1,14, 0,24, 0.00,60.00,Saturday
141,49594209.587150484
190,0.0
2,15, 1,15, 0, 1, 0.00,60.00,Sunday
141,48538993.87314533
190,0.0
2,15, 1,15, 0, 2, 0.00,60.00,Sunday
141,46041964.75486667
190,0.0
2,15, 1,15, 0, 3, 0.00,60.00,Sunday
141,44832562.422001906
190,0.0
2,15, 1,15, 0, 4, 0.00,60.00,Sunday
141,43988799.83958945
190,0.0
2,15, 1,15, 0, 5, 0.00,60.00,Sunday
141,42429876.57419838
190,0.0
2,15, 1,15, 0, 6, 0.00,60.00,Sunday
141,40791061.59902949
190,0.0
2,15, 1,15, 0, 7, 0.00,60.00,Sunday
141,39177216.59527123
190,0.0
2,15, 1,15, 0, 8, 0.00,60.00,Sunday
141,38122769.57260065
190,0.0
2,15, 1,15, 0, 9, 0.00,60.00,Sunday
141,37333655.843216784
190,0.0
2,15, 1,15, 0,10, 0.00,60.00,Sunday
141,37256566.653848186
190,0.0
2,15, 1,15, 0,11, 0.00,60.00,Sunday
141,38173286.49777097
190,0.0
2,15, 1,15, 0,12, 0.00,60.00,Sunday
141,40472158.1309979
190,0.0
2,15, 1,15, 0,13, 0.00,60.00,Sunday
141,42181796.07366245
190,0.0
2,15, 1,15, 0,14, 0.00,60.00,Sunday
141,42912354.59834569
190,0.0
2,15, 1,15, 0,15, 0.00,60.00,Sunday
141,43224216.371145844
190,0.0
2,15, 1,15, 0,16, 0.00,60.00,Sunday
141,42706395.93677677
190,0.0
2,15, 1,15, 0,17, 0.00,60.00,Sunday
141,42357478.01171073
190,0.0
2,15, 1,15, 0,18, 0.00,60.00,Sunday
141,42527011.34297776
190,0.0
2,15, 1,15, 0,19, 0.00,60.00,Sunday
141,42926304.85541655
190,0.0
2,15, 1,15, 0,20, 0.00,60.00,Sunday
141,43430444.39632856
190,0.0
2,15, 1,15, 0,21, 0.00,60.00,Sunday
141,44479539.36860071
190,0.0
2,15, 1,15, 0,22, 0.00,60.00,Sunday
141,44951102.20418616
190,0.0
2,15, 1,15, 0,23, 0.00,60.00,Sunday
141,45008740.007654205
190,0.0
2,15, 1,15, 0,24, 0.00,60.00,Sunday
141,45267609.113600016
190,0.0
2,16, 1,16, 0, 1, 0.00,60.00,Monday
141,46212887.6592494
190,0.0
2,16, 1,16, 0, 2, 0.00,60.00,Monday
141,47095378.693185896
190,0.0
2,16, 1,16, 0, 3, 0.00,60.00,Monday
141,47584883.03184643
190,0.0
2,16, 1,16, 0, 4, 0.00,60.00,Monday
141,47937922.485213675
190,0.0
2,16, 1,16, 0, 5, 0.00,60.00,Monday
141,48473039.64541014
190,0.0
2,16, 1,16, 0, 6, 0.00,60.00,Monday
141,48930992.31972217
190,0.0
2,16, 1,16, 0, 7, 0.00,60.00,Monday
141,49886777.56898319
190,0.0
2,16, 1,16, 0, 8, 0.00,60.00,Monday
141,50784264.54266983
190,0.0
2,16, 1,16, 0, 9, 0.00,60.00,Monday
141,51159093.463684425
190,0.0
2,16, 1,16, 0,10, 0.00,60.00,Monday
141,51152020.11978714
190,0.0
2,16, 1,16, 0,11, 0.00,60.00,Monday
141,49102104.944937885
190,0.0
2,16, 1,16, 0,12, 0.00,60.00,Monday
141,47292700.431684315
190,0.0
2,16, 1,16, 0,13, 0.00,60.00,Monday
141,45889944.72293413
190,0.0
2,16, 1,16, 0,14, 0.00,60.00,Monday
141,44966768.75855176
190,0.0
2,16, 1,16, 0,15, 0.00,60.00,Monday
141,44881459.230481386
190,0.0
2,16, 1,16, 0,16, 0.00,60.00,Monday
141,45312299.59459019
190,0.0
2,16, 1,16, 0,17, 0.00,60.00,Monday
141,46336964.03766559
190,0.0
2,16, 1,16, 0,18, 0.00,60.00,Monday
141,48276341.081533946
190,0.0
2,16, 1,16, 0,19, 0.00,60.00,Monday
141,50310147.93815156
190,0.0
2,16, 1,16, 0,20, 0.00,60.00,Monday
141,51339910.02607603
190,0.0
2,16, 1,16, 0,21, 0.00,60.00,Monday
141,52149928.734454155
190,0.0
2,16, 1,16, 0,22, 0.00,60.00,Monday
141,52882296.16288317
190,0.0
2,16, 1,16, 0,23, 0.00,60.00,Monday
141,53989600.33435865
190,0.0
2,16, 1,16, 0,24, 0.00,60.00,Monday
141,54224847.97358072
190,0.0
2,17, 1,17, 0, 1, 0.00,60.00,Tuesday
141,54543159.78148545
190,0.0
2,17, 1,17, 0, 2, 0.00,60.00,Tuesday
141,55866455.27852498
190,0.0
2,17, 1,17, 0, 3, 0.00,60.00,Tuesday
141,56958690.15005136
190,0.0
2,17, 1,17, 0, 4, 0.00,60.00,Tuesday
141,57880449.90137315
190,0.0
2,17, 1,17, 0, 5, 0.00,60.00,Tuesday
141,58910546.47176157
190,0.0
2,17, 1,17, 0, 6, 0.00,60.00,Tuesday
141,59945021.64595296
190,0.0
2,17, 1,17, 0, 7, 0.00,60.00,Tuesday
141,60543231.14569621
190,0.0
2,17, 1,17, 0, 8, 0.00,60.00,Tuesday
141,60838620.85787592
190,0.0
2,17, 1,17, 0, 9, 0.00,60.00,Tuesday
141,60856936.368961275
190,0.0
2,17, 1,17, 0,10, 0.00,60.00,Tuesday
141,58477008.72468603
190,0.0
2,17, 1,17, 0,11, 0.00,60.00,Tuesday
141,54993355.93016341
190,0.0
2,17, 1,17, 0,12, 0.00,60.00,Tuesday
141,51991634.53400351
190,0.0
2,17, 1,17, 0,13, 0.00,60.00,Tuesday
141,50246520.94478668
190,0.0
2,17, 1,17, 0,14, 0.00,60.00,Tuesday
141,49882928.29317347
190,0.0
2,17, 1,17, 0,15, 0.00,60.00,Tuesday
141,50487756.65972474
190,0.0
2,17, 1,17, 0,16, 0.00,60.00,Tuesday
141,52225471.32604485
190,0.0
2,17, 1,17, 0,17, 0.00,60.00,Tuesday
141,53631572.10248646
190,0.0
2,17, 1,17, 0,18, 0.00,60.00,Tuesday
141,53851009.09340375
190,0.0
2,17, 1,17, 0,19, 0.00,60.00,Tuesday
141,53802929.58344988
190,0.0
2,17, 1,17, 0,20, 0.00,60.00,Tuesday
141,54161179.16648295
190,0.0
2,17, 1,17, 0,21, 0.00,60.00,Tuesday
141,54718228.90330295
190,0.0
2,17, 1,17, 0,22, 0.00,60.00,Tuesday
141,54830416.808156386
190,0.0
2,17, 1,17, 0,23, 0.00,60.00,Tuesday
141,54912747.933205694
190,0.0
2,17, 1,17, 0,24, 0.00,60.00,Tuesday
141,55629189.1159457
190,0.0
2,18, 1,18, 0, 1, 0.00,60.00,Wednesday
141,56071930.64936198
190,0.0
2,18, 1,18, 0, 2, 0.00,60.00,Wednesday
141,56378495.1444597
190,0.0
2,18, 1,18, 0, 3, 0.00,60.00,Wednesday
141,56450266.36554908
190,0.0
2,18, 1,18, 0, 4, 0.00,60.00,Wednesday
141,56354989.87951496
190,0.0
2,18, 1,18, 0, 5, 0.00,60.00,Wednesday
141,56364087.34037
190,0.0
2,18, 1,18, 0, 6, 0.00,60.00,Wednesday
141,56514410.63724605
190,0.0
2,18, 1,18, 0, 7, 0.00,60.00,Wednesday
141,57632686.09021107
190,0.0
2,18, 1,18, 0, 8, 0.00,60.00,Wednesday
141,57936788.732249126
190,0.0
2,18, 1,18, 0, 9, 0.00,60.00,Wednesday
141,58082536.8756257
190,0.0
2,18, 1,18, 0,10, 0.00,60.00,Wednesday
141,57974073.2007796
190,0.0
2,18, 1,18, 0,11, 0.00,60.00,Wednesday
141,56817278.19972494
190,0.0
2,18, 1,18, 0,12, 0.00,60.00,Wednesday
141,55930165.645539686
190,0.0
2,18, 1,18, 0,13, 0.00,60.00,Wednesday
141,56310076.32110002
190,0.0
2,18, 1,18, 0,14, 0.00,60.00,Wednesday
141,57159885.16573374
190,0.0
2,18, 1,18, 0,15, 0.00,60.00,Wednesday
141,57624359.08940328
190,0.0
2,18, 1,18, 0,16, 0.00,60.00,Wednesday
141,58617163.134428784
190,0.0
2,18, 1,18, 0,17, 0.00,60.00,Wednesday
141,59122308.34480739
190,0.0
2,18, 1,18, 0,18, 0.00,60.00,Wednesday
141,58758154.87680863
190,0.0
2,18, 1,18, 0,19, 0.00,60.00,Wednesday
141,58584860.25753763
190,0.0
2,18, 1,18, 0,20, 0.00,60.00,Wednesday
141,58764160.64281835
190,0.0
2,18, 1,18, 0,21, 0.00,60.00,Wednesday
141,58891711.41715725
190,0.0
2,18, 1,18, 0,22, 0.00,60.00,Wednesday
141,59211141.52198107
190,0.0
2,18, 1,18, 0,23, 0.00,60.00,Wednesday
141,59442598.83913003
190,0.0
2,18, 1,18, 0,24, 0.00,60.00,Wednesday
141,59752282.70769139
190,0.0
2,19, 1,19, 0, 1, 0.00,60.00,Thursday
141,59394992.81736036
190,0.0
2,19, 1,19, 0, 2, 0.00,60.00,Thursday
141,59574901.116099656
190,0.0
2,19, 1,19, 0, 3, 0.00,60.00,Thursday
141,60585689.678866155