Program Version,EnergyPlus, Version 24.2.0-94a887817b, YMD=2025.04.24 13:21
1,5,Environment Title[],Latitude[deg],Longitude[deg],Time Zone[],Elevation[m]
2,8,Day of Simulation[],Month[],Day of Month[],DST Indicator[1=yes 0=no],Hour[],StartMinute[],EndMinute[],DayType
3,5,Cumulative Day of Simulation[],Month[],Day of Month[],DST Indicator[1=yes 0=no],DayType  ! When Daily Report Variables Requested
4,2,Cumulative Days of Simulation[],Month[]  ! When Monthly Report Variables Requested
5,1,Cumulative Days of Simulation[] ! When Run Period Report Variables Requested
6,1,Calendar Year of Simulation[] ! When Annual Report Variables Requested
141,1,ZONE_0599100000427536 IDEAL LOADS AIR SYSTEM,Zone Ideal Loads Supply Air Total Heating Energy [J] !Hourly
190,1,ZONE_0599100000427536 IDEAL LOADS AIR SYSTEM,Zone Ideal Loads Supply Air Total Cooling Energy [J] !Hourly
End of Data Dictionary
1,RUN PERIOD 1,  51.96,   4.45,   1.00,  -4.50
2,1, 1, 1, 0, 1, 0.00,60.00,Sunday
141,28130543.176639788
190,0.0
2,1, 1, 1, 0, 2, 0.00,60.00,Sunday
141,29111620.19620852
190,0.0
2,1, 1, 1, 0, 3, 0.00,60.00,Sunday
141,29100871.18689555
190,0.0
2,1, 1, 1, 0, 4, 0.00,60.00,Sunday
141,29823545.018487655
190,0.0
2,1, 1, 1, 0, 5, 0.00,60.00,Sunday
141,30314746.52820995
190,0.0
2,1, 1, 1, 0, 6, 0.00,60.00,Sunday
141,30366583.880497042
190,0.0
2,1, 1, 1, 0, 7, 0.00,60.00,Sunday
141,30451100.321465068
190,0.0
2,1, 1, 1, 0, 8, 0.00,60.00,Sunday
141,30381155.63712268
190,0.0
2,1, 1, 1, 0, 9, 0.00,60.00,Sunday
141,30318894.50755377
190,0.0
2,1, 1, 1, 0,10, 0.00,60.00,Sunday
141,30080733.260465104
190,0.0
2,1, 1, 1, 0,11, 0.00,60.00,Sunday
141,29473329.950662456
190,0.0
2,1, 1, 1, 0,12, 0.00,60.00,Sunday
141,28492587.35663721
190,0.0
2,1, 1, 1, 0,13, 0.00,60.00,Sunday
141,28010462.494182635
190,0.0
2,1, 1, 1, 0,14, 0.00,60.00,Sunday
141,27346991.51326748
190,0.0
2,1, 1, 1, 0,15, 0.00,60.00,Sunday
141,26887675.318112403
190,0.0
2,1, 1, 1, 0,16, 0.00,60.00,Sunday
141,27340101.115648177
190,0.0
2,1, 1, 1, 0,17, 0.00,60.00,Sunday
141,27910385.506030824
190,0.0
2,1, 1, 1, 0,18, 0.00,60.00,Sunday
141,28095042.267789803
190,0.0
2,1, 1, 1, 0,19, 0.00,60.00,Sunday
141,28257983.805399098
190,0.0
2,1, 1, 1, 0,20, 0.00,60.00,Sunday
141,28232717.246071823
190,0.0
2,1, 1, 1, 0,21, 0.00,60.00,Sunday
141,28143368.42200071
190,0.0
2,1, 1, 1, 0,22, 0.00,60.00,Sunday
141,28208192.226977747
190,0.0
2,1, 1, 1, 0,23, 0.00,60.00,Sunday
141,27527918.262167197
190,0.0
2,1, 1, 1, 0,24, 0.00,60.00,Sunday
141,27022114.580575377
190,0.0
2,2, 1, 2, 0, 1, 0.00,60.00,Monday
141,27112759.162494563
190,0.0
2,2, 1, 2, 0, 2, 0.00,60.00,Monday
141,26424335.769108973
190,0.0
2,2, 1, 2, 0, 3, 0.00,60.00,Monday
141,25895366.472037837
190,0.0
2,2, 1, 2, 0, 4, 0.00,60.00,Monday
141,25359692.66193134
190,0.0
2,2, 1, 2, 0, 5, 0.00,60.00,Monday
141,24189110.431203395
190,0.0
2,2, 1, 2, 0, 6, 0.00,60.00,Monday
141,23633526.46501189
190,0.0
2,2, 1, 2, 0, 7, 0.00,60.00,Monday
141,22762019.478875898
190,0.0
2,2, 1, 2, 0, 8, 0.00,60.00,Monday
141,21701347.88295884
190,0.0
2,2, 1, 2, 0, 9, 0.00,60.00,Monday
141,22040662.807298735
190,0.0
2,2, 1, 2, 0,10, 0.00,60.00,Monday
141,22848600.325629532
190,0.0
2,2, 1, 2, 0,11, 0.00,60.00,Monday
141,23403667.15823355
190,0.0
2,2, 1, 2, 0,12, 0.00,60.00,Monday
141,22964037.635557827
190,0.0
2,2, 1, 2, 0,13, 0.00,60.00,Monday
141,22791134.416409377
190,0.0
2,2, 1, 2, 0,14, 0.00,60.00,Monday
141,23355871.98527864
190,0.0
2,2, 1, 2, 0,15, 0.00,60.00,Monday
141,23598283.060023077
190,0.0
2,2, 1, 2, 0,16, 0.00,60.00,Monday
141,24115260.803490277
190,0.0
2,2, 1, 2, 0,17, 0.00,60.00,Monday
141,24614497.394552447
190,0.0
2,2, 1, 2, 0,18, 0.00,60.00,Monday
141,24691666.779882748
190,0.0
2,2, 1, 2, 0,19, 0.00,60.00,Monday
141,25232237.42427218
190,0.0
2,2, 1, 2, 0,20, 0.00,60.00,Monday
141,25722153.878732458
190,0.0
2,2, 1, 2, 0,21, 0.00,60.00,Monday
141,25777351.232957046
190,0.0
2,2, 1, 2, 0,22, 0.00,60.00,Monday
141,25730460.38596598
190,0.0
2,2, 1, 2, 0,23, 0.00,60.00,Monday
141,25717630.833995447
190,0.0
2,2, 1, 2, 0,24, 0.00,60.00,Monday
141,25715647.73285101
190,0.0
2,3, 1, 3, 0, 1, 0.00,60.00,Tuesday
141,25731738.724259153
190,0.0
2,3, 1, 3, 0, 2, 0.00,60.00,Tuesday
141,25700905.638815384
190,0.0
2,3, 1, 3, 0, 3, 0.00,60.00,Tuesday
141,25655259.222562723
190,0.0
2,3, 1, 3, 0, 4, 0.00,60.00,Tuesday
141,25717444.72309169
190,0.0
2,3, 1, 3, 0, 5, 0.00,60.00,Tuesday
141,26349401.90591904
190,0.0
2,3, 1, 3, 0, 6, 0.00,60.00,Tuesday
141,26753217.492592987
190,0.0
2,3, 1, 3, 0, 7, 0.00,60.00,Tuesday
141,26939540.437710084
190,0.0
2,3, 1, 3, 0, 8, 0.00,60.00,Tuesday
141,26868497.71854564
190,0.0
2,3, 1, 3, 0, 9, 0.00,60.00,Tuesday
141,27388871.831156928
190,0.0
2,3, 1, 3, 0,10, 0.00,60.00,Tuesday
141,27635459.78870923
190,0.0
2,3, 1, 3, 0,11, 0.00,60.00,Tuesday
141,27693146.133192025
190,0.0
2,3, 1, 3, 0,12, 0.00,60.00,Tuesday
141,27848820.674007628
190,0.0
2,3, 1, 3, 0,13, 0.00,60.00,Tuesday
141,28661640.5032065
190,0.0
2,3, 1, 3, 0,14, 0.00,60.00,Tuesday
141,29106744.358890675
190,0.0
2,3, 1, 3, 0,15, 0.00,60.00,Tuesday
141,29005727.631113775
190,0.0
2,3, 1, 3, 0,16, 0.00,60.00,Tuesday
141,28915072.853580263
190,0.0
2,3, 1, 3, 0,17, 0.00,60.00,Tuesday
141,28941413.462256655
190,0.0
2,3, 1, 3, 0,18, 0.00,60.00,Tuesday
141,29007898.43214155
190,0.0
2,3, 1, 3, 0,19, 0.00,60.00,Tuesday
141,28876728.555522192
190,0.0
2,3, 1, 3, 0,20, 0.00,60.00,Tuesday
141,28235000.454431586
190,0.0
2,3, 1, 3, 0,21, 0.00,60.00,Tuesday
141,26500354.733704098
190,0.0
2,3, 1, 3, 0,22, 0.00,60.00,Tuesday
141,25569900.62250802
190,0.0
2,3, 1, 3, 0,23, 0.00,60.00,Tuesday
141,26233985.486854892
190,0.0
2,3, 1, 3, 0,24, 0.00,60.00,Tuesday
141,27366778.557037693
190,0.0
2,4, 1, 4, 0, 1, 0.00,60.00,Wednesday
141,27931615.29925018
190,0.0
2,4, 1, 4, 0, 2, 0.00,60.00,Wednesday
141,27843491.795849305
190,0.0
2,4, 1, 4, 0, 3, 0.00,60.00,Wednesday
141,27673371.065512832
190,0.0
2,4, 1, 4, 0, 4, 0.00,60.00,Wednesday
141,27864342.21755668
190,0.0
2,4, 1, 4, 0, 5, 0.00,60.00,Wednesday
141,28615729.672819618
190,0.0
2,4, 1, 4, 0, 6, 0.00,60.00,Wednesday
141,28417231.960791953
190,0.0
2,4, 1, 4, 0, 7, 0.00,60.00,Wednesday
141,28379198.367950372
190,0.0
2,4, 1, 4, 0, 8, 0.00,60.00,Wednesday
141,28679335.73100254
190,0.0
2,4, 1, 4, 0, 9, 0.00,60.00,Wednesday
141,28895897.599891745
190,0.0
2,4, 1, 4, 0,10, 0.00,60.00,Wednesday
141,29070952.900284603
190,0.0
2,4, 1, 4, 0,11, 0.00,60.00,Wednesday
141,27709751.501075186
190,0.0
2,4, 1, 4, 0,12, 0.00,60.00,Wednesday
141,25406296.424374342
190,0.0
2,4, 1, 4, 0,13, 0.00,60.00,Wednesday
141,24788029.96822495
190,0.0
2,4, 1, 4, 0,14, 0.00,60.00,Wednesday
141,24706457.811323818
190,0.0
2,4, 1, 4, 0,15, 0.00,60.00,Wednesday
141,24488559.475043323
190,0.0
2,4, 1, 4, 0,16, 0.00,60.00,Wednesday
141,25438830.40156696
190,0.0
2,4, 1, 4, 0,17, 0.00,60.00,Wednesday
141,27138223.229565307
190,0.0
2,4, 1, 4, 0,18, 0.00,60.00,Wednesday
141,28610309.715753745
190,0.0
2,4, 1, 4, 0,19, 0.00,60.00,Wednesday
141,30104549.059832335
190,0.0
2,4, 1, 4, 0,20, 0.00,60.00,Wednesday
141,30884823.925997183
190,0.0
2,4, 1, 4, 0,21, 0.00,60.00,Wednesday
141,31230542.856281504
190,0.0
2,4, 1, 4, 0,22, 0.00,60.00,Wednesday
141,31940002.776691027
190,0.0
2,4, 1, 4, 0,23, 0.00,60.00,Wednesday
141,31602898.70007793
190,0.0
2,4, 1, 4, 0,24, 0.00,60.00,Wednesday
141,31045829.468415335
190,0.0
2,5, 1, 5, 0, 1, 0.00,60.00,Thursday
141,31211162.898532316
190,0.0
2,5, 1, 5, 0, 2, 0.00,60.00,Thursday
141,30817330.756937325
190,0.0
2,5, 1, 5, 0, 3, 0.00,60.00,Thursday
141,30438990.17118178
190,0.0
2,5, 1, 5, 0, 4, 0.00,60.00,Thursday
141,30491633.467560727
190,0.0
2,5, 1, 5, 0, 5, 0.00,60.00,Thursday
141,30076313.721140064
190,0.0
2,5, 1, 5, 0, 6, 0.00,60.00,Thursday
141,29901963.11113479
190,0.0
2,5, 1, 5, 0, 7, 0.00,60.00,Thursday
141,30173985.163419995
190,0.0
2,5, 1, 5, 0, 8, 0.00,60.00,Thursday
141,30417378.07356606
190,0.0
2,5, 1, 5, 0, 9, 0.00,60.00,Thursday
141,30511191.336022206
190,0.0
2,5, 1, 5, 0,10, 0.00,60.00,Thursday
141,30966778.618888546
190,0.0
2,5, 1, 5, 0,11, 0.00,60.00,Thursday
141,30858413.705856733
190,0.0
2,5, 1, 5, 0,12, 0.00,60.00,Thursday
141,29879089.42477031
190,0.0
2,5, 1, 5, 0,13, 0.00,60.00,Thursday
141,29541848.82735317
190,0.0
2,5, 1, 5, 0,14, 0.00,60.00,Thursday
141,28842232.872396596
190,0.0
2,5, 1, 5, 0,15, 0.00,60.00,Thursday
141,28289338.4431348
190,0.0
2,5, 1, 5, 0,16, 0.00,60.00,Thursday
141,28759624.4431876
190,0.0
2,5, 1, 5, 0,17, 0.00,60.00,Thursday
141,28654393.99951559
190,0.0
2,5, 1, 5, 0,18, 0.00,60.00,Thursday
141,28357768.282984298
190,0.0
2,5, 1, 5, 0,19, 0.00,60.00,Thursday
141,28538380.286832597
190,0.0
2,5, 1, 5, 0,20, 0.00,60.00,Thursday
141,28512997.714906093
190,0.0
2,5, 1, 5, 0,21, 0.00,60.00,Thursday
141,28417392.269106448
190,0.0
2,5, 1, 5, 0,22, 0.00,60.00,Thursday
141,28446729.14374673
190,0.0
2,5, 1, 5, 0,23, 0.00,60.00,Thursday
141,28604709.996066697
190,0.0
2,5, 1, 5, 0,24, 0.00,60.00,Thursday
141,28775636.951073535
190,0.0
2,6, 1, 6, 0, 1, 0.00,60.00,Friday
141,28891042.25282254
190,0.0
2,6, 1, 6, 0, 2, 0.00,60.00,Friday
141,29001134.325154908
190,0.0
2,6, 1, 6, 0, 3, 0.00,60.00,Friday
141,29665459.039237816
190,0.0
2,6, 1, 6, 0, 4, 0.00,60.00,Friday
141,30308410.551262733
190,0.0
2,6, 1, 6, 0, 5, 0.00,60.00,Friday
141,30646312.83795922
190,0.0
2,6, 1, 6, 0, 6, 0.00,60.00,Friday
141,31055693.980307326
190,0.0
2,6, 1, 6, 0, 7, 0.00,60.00,Friday
141,31657250.235005084
190,0.0
2,6, 1, 6, 0, 8, 0.00,60.00,Friday
141,32225126.215585064
190,0.0
2,6, 1, 6, 0, 9, 0.00,60.00,Friday
141,32907571.02515199
190,0.0
2,6, 1, 6, 0,10, 0.00,60.00,Friday
141,33312160.267806
190,0.0
2,6, 1, 6, 0,11, 0.00,60.00,Friday
141,32857942.574654363
190,0.0
2,6, 1, 6, 0,12, 0.00,60.00,Friday
141,32148263.8158855
190,0.0
2,6, 1, 6, 0,13, 0.00,60.00,Friday
141,31811379.064290106
190,0.0
2,6, 1, 6, 0,14, 0.00,60.00,Friday
141,31675004.626428965
190,0.0
2,6, 1, 6, 0,15, 0.00,60.00,Friday
141,31484220.27013413
190,0.0
2,6, 1, 6, 0,16, 0.00,60.00,Friday
141,31040431.49568994
190,0.0
2,6, 1, 6, 0,17, 0.00,60.00,Friday
141,30581970.785233784
190,0.0
2,6, 1, 6, 0,18, 0.00,60.00,Friday
141,30364470.609405123
190,0.0
2,6, 1, 6, 0,19, 0.00,60.00,Friday
141,30110110.17836935
190,0.0
2,6, 1, 6, 0,20, 0.00,60.00,Friday
141,29488086.36176397
190,0.0
2,6, 1, 6, 0,21, 0.00,60.00,Friday
141,27928325.95886542
190,0.0
2,6, 1, 6, 0,22, 0.00,60.00,Friday
141,26061001.376861274
190,0.0
2,6, 1, 6, 0,23, 0.00,60.00,Friday
141,25227445.385857854
190,0.0
2,6, 1, 6, 0,24, 0.00,60.00,Friday
141,25413800.17370366
190,0.0
2,7, 1, 7, 0, 1, 0.00,60.00,Saturday
141,26896609.008098185
190,0.0
2,7, 1, 7, 0, 2, 0.00,60.00,Saturday
141,28374276.089691676
190,0.0
2,7, 1, 7, 0, 3, 0.00,60.00,Saturday
141,28164688.313648086
190,0.0
2,7, 1, 7, 0, 4, 0.00,60.00,Saturday
141,28282518.400884993
190,0.0
2,7, 1, 7, 0, 5, 0.00,60.00,Saturday
141,29289793.6044102
190,0.0
2,7, 1, 7, 0, 6, 0.00,60.00,Saturday
141,30076664.650761865
190,0.0
2,7, 1, 7, 0, 7, 0.00,60.00,Saturday
141,30535471.23634646
190,0.0
2,7, 1, 7, 0, 8, 0.00,60.00,Saturday
141,30758231.173235208
190,0.0
2,7, 1, 7, 0, 9, 0.00,60.00,Saturday
141,30186899.96473643
190,0.0
2,7, 1, 7, 0,10, 0.00,60.00,Saturday
141,29674072.203351106
190,0.0
2,7, 1, 7, 0,11, 0.00,60.00,Saturday
141,28182132.448684383
190,0.0
2,7, 1, 7, 0,12, 0.00,60.00,Saturday
141,26680302.300689295
190,0.0
2,7, 1, 7, 0,13, 0.00,60.00,Saturday
141,25593125.681217175
190,0.0
2,7, 1, 7, 0,14, 0.00,60.00,Saturday
141,25054691.319649592
190,0.0
2,7, 1, 7, 0,15, 0.00,60.00,Saturday
141,25316398.294953465
190,0.0
2,7, 1, 7, 0,16, 0.00,60.00,Saturday
141,25847950.58031871
190,0.0
2,7, 1, 7, 0,17, 0.00,60.00,Saturday
141,26298065.644936766
190,0.0
2,7, 1, 7, 0,18, 0.00,60.00,Saturday
141,27055768.603690095
190,0.0
2,7, 1, 7, 0,19, 0.00,60.00,Saturday
141,27761835.09183367
190,0.0
2,7, 1, 7, 0,20, 0.00,60.00,Saturday
141,28437473.01561544
190,0.0
2,7, 1, 7, 0,21, 0.00,60.00,Saturday
141,28916900.552089065
190,0.0
2,7, 1, 7, 0,22, 0.00,60.00,Saturday
141,28938560.173384607
190,0.0
2,7, 1, 7, 0,23, 0.00,60.00,Saturday
141,29018060.251009222
190,0.0
2,7, 1, 7, 0,24, 0.00,60.00,Saturday
141,28963939.611633174
190,0.0
2,8, 1, 8, 0, 1, 0.00,60.00,Sunday
141,28506139.314814515
190,0.0
2,8, 1, 8, 0, 2, 0.00,60.00,Sunday
141,27971529.328661833
190,0.0
2,8, 1, 8, 0, 3, 0.00,60.00,Sunday
141,27485380.573936835
190,0.0
2,8, 1, 8, 0, 4, 0.00,60.00,Sunday
141,26797979.282142136
190,0.0
2,8, 1, 8, 0, 5, 0.00,60.00,Sunday
141,25966712.593788926
190,0.0
2,8, 1, 8, 0, 6, 0.00,60.00,Sunday
141,25340570.041914064
190,0.0
2,8, 1, 8, 0, 7, 0.00,60.00,Sunday
141,24861429.98542182
190,0.0
2,8, 1, 8, 0, 8, 0.00,60.00,Sunday
141,24450834.70514914
190,0.0
2,8, 1, 8, 0, 9, 0.00,60.00,Sunday
141,24023797.520606402
190,0.0
2,8, 1, 8, 0,10, 0.00,60.00,Sunday
141,23883536.511089165
190,0.0
2,8, 1, 8, 0,11, 0.00,60.00,Sunday
141,23776599.149053328
190,0.0
2,8, 1, 8, 0,12, 0.00,60.00,Sunday
141,23859458.780202974
190,0.0
2,8, 1, 8, 0,13, 0.00,60.00,Sunday
141,23780880.127338175
190,0.0
2,8, 1, 8, 0,14, 0.00,60.00,Sunday
141,23880173.27027896
190,0.0
2,8, 1, 8, 0,15, 0.00,60.00,Sunday
141,24791903.030409623
190,0.0
2,8, 1, 8, 0,16, 0.00,60.00,Sunday
141,25448801.237477757
190,0.0
2,8, 1, 8, 0,17, 0.00,60.00,Sunday
141,25481040.10493956
190,0.0
2,8, 1, 8, 0,18, 0.00,60.00,Sunday
141,25770064.527916055
190,0.0
2,8, 1, 8, 0,19, 0.00,60.00,Sunday
141,25609353.78683681
190,0.0
2,8, 1, 8, 0,20, 0.00,60.00,Sunday
141,25054374.88691579
190,0.0
2,8, 1, 8, 0,21, 0.00,60.00,Sunday
141,24653436.61306399
190,0.0
2,8, 1, 8, 0,22, 0.00,60.00,Sunday
141,24760758.164651375
190,0.0
2,8, 1, 8, 0,23, 0.00,60.00,Sunday
141,24860894.40070767
190,0.0
2,8, 1, 8, 0,24, 0.00,60.00,Sunday
141,25182118.926149093
190,0.0
2,9, 1, 9, 0, 1, 0.00,60.00,Monday
141,25239096.94242446
190,0.0
2,9, 1, 9, 0, 2, 0.00,60.00,Monday
141,25271129.28931908
190,0.0
2,9, 1, 9, 0, 3, 0.00,60.00,Monday
141,25186136.63454649
190,0.0
2,9, 1, 9, 0, 4, 0.00,60.00,Monday
141,24980292.22214073
190,0.0
2,9, 1, 9, 0, 5, 0.00,60.00,Monday
141,24525229.29145017
190,0.0
2,9, 1, 9, 0, 6, 0.00,60.00,Monday
141,24065257.80002074
190,0.0
2,9, 1, 9, 0, 7, 0.00,60.00,Monday
141,23732739.061853167
190,0.0
2,9, 1, 9, 0, 8, 0.00,60.00,Monday
141,23551603.854626738
190,0.0
2,9, 1, 9, 0, 9, 0.00,60.00,Monday
141,23059517.482569385
190,0.0
2,9, 1, 9, 0,10, 0.00,60.00,Monday
141,21866098.38325781
190,0.0
2,9, 1, 9, 0,11, 0.00,60.00,Monday
141,20849826.23211804
190,0.0
2,9, 1, 9, 0,12, 0.00,60.00,Monday
141,20288321.70156669
190,0.0
2,9, 1, 9, 0,13, 0.00,60.00,Monday
141,19825935.523963083
190,0.0
2,9, 1, 9, 0,14, 0.00,60.00,Monday
141,19490863.353358276
190,0.0
2,9, 1, 9, 0,15, 0.00,60.00,Monday
141,19378513.686093394
190,0.0
2,9, 1, 9, 0,16, 0.00,60.00,Monday
141,19623001.276998624
190,0.0
2,9, 1, 9, 0,17, 0.00,60.00,Monday
141,20437487.429270554
190,0.0
2,9, 1, 9, 0,18, 0.00,60.00,Monday
141,21205839.4245898
190,0.0
2,9, 1, 9, 0,19, 0.00,60.00,Monday
141,21147304.13187804
190,0.0
2,9, 1, 9, 0,20, 0.00,60.00,Monday
141,20080847.603172205
190,0.0
2,9, 1, 9, 0,21, 0.00,60.00,Monday
141,19002385.33747575
190,0.0
2,9, 1, 9, 0,22, 0.00,60.00,Monday
141,18340975.27397747
190,0.0
2,9, 1, 9, 0,23, 0.00,60.00,Monday
141,18217346.063754264
190,0.0
2,9, 1, 9, 0,24, 0.00,60.00,Monday
141,18284737.997374255
190,0.0
2,10, 1,10, 0, 1, 0.00,60.00,Tuesday
141,18581345.744905382
190,0.0
2,10, 1,10, 0, 2, 0.00,60.00,Tuesday
141,18784514.750696875
190,0.0
2,10, 1,10, 0, 3, 0.00,60.00,Tuesday
141,18821742.644116722
190,0.0
2,10, 1,10, 0, 4, 0.00,60.00,Tuesday
141,19155517.418615222
190,0.0
2,10, 1,10, 0, 5, 0.00,60.00,Tuesday
141,19280930.967482604
190,0.0
2,10, 1,10, 0, 6, 0.00,60.00,Tuesday
141,19325142.48919948
190,0.0
2,10, 1,10, 0, 7, 0.00,60.00,Tuesday
141,19377274.203754228
190,0.0
2,10, 1,10, 0, 8, 0.00,60.00,Tuesday
141,19269623.362820785
190,0.0
2,10, 1,10, 0, 9, 0.00,60.00,Tuesday
141,19111686.740638293
190,0.0
2,10, 1,10, 0,10, 0.00,60.00,Tuesday
141,18892994.017269276
190,0.0
2,10, 1,10, 0,11, 0.00,60.00,Tuesday
141,18568561.503000647
190,0.0
2,10, 1,10, 0,12, 0.00,60.00,Tuesday
141,18195409.81811154
190,0.0
2,10, 1,10, 0,13, 0.00,60.00,Tuesday
141,18141196.475615706
190,0.0
2,10, 1,10, 0,14, 0.00,60.00,Tuesday
141,19543568.617876783
190,0.0
2,10, 1,10, 0,15, 0.00,60.00,Tuesday
141,20677941.19515875
190,0.0
2,10, 1,10, 0,16, 0.00,60.00,Tuesday
141,21378130.557856042
190,0.0
2,10, 1,10, 0,17, 0.00,60.00,Tuesday
141,22097480.50658486
190,0.0
2,10, 1,10, 0,18, 0.00,60.00,Tuesday
141,23027369.77239788
190,0.0
2,10, 1,10, 0,19, 0.00,60.00,Tuesday
141,23518236.092164505
190,0.0
2,10, 1,10, 0,20, 0.00,60.00,Tuesday
141,23884116.578273445
190,0.0
2,10, 1,10, 0,21, 0.00,60.00,Tuesday
141,24463061.26330533
190,0.0
2,10, 1,10, 0,22, 0.00,60.00,Tuesday
141,24789305.376256846
190,0.0
2,10, 1,10, 0,23, 0.00,60.00,Tuesday
141,24572391.531029955
190,0.0
2,10, 1,10, 0,24, 0.00,60.00,Tuesday
141,24944067.081369378
190,0.0
2,11, 1,11, 0, 1, 0.00,60.00,Wednesday
141,24993846.370871093
190,0.0
2,11, 1,11, 0, 2, 0.00,60.00,Wednesday
141,25041473.316956427
190,0.0
2,11, 1,11, 0, 3, 0.00,60.00,Wednesday
141,25238587.89485235
190,0.0
2,11, 1,11, 0, 4, 0.00,60.00,Wednesday
141,24931135.074545633
190,0.0
2,11, 1,11, 0, 5, 0.00,60.00,Wednesday
141,24706960.02705387
190,0.0
2,11, 1,11, 0, 6, 0.00,60.00,Wednesday
141,24614186.22325946
190,0.0
2,11, 1,11, 0, 7, 0.00,60.00,Wednesday
141,24682790.78181507
190,0.0
2,11, 1,11, 0, 8, 0.00,60.00,Wednesday
141,24769706.52269787
190,0.0
2,11, 1,11, 0, 9, 0.00,60.00,Wednesday
141,24704292.890584294
190,0.0
2,11, 1,11, 0,10, 0.00,60.00,Wednesday
141,24534786.628877472
190,0.0
2,11, 1,11, 0,11, 0.00,60.00,Wednesday
141,24251747.252295937
190,0.0
2,11, 1,11, 0,12, 0.00,60.00,Wednesday
141,23790015.311330456
190,0.0
2,11, 1,11, 0,13, 0.00,60.00,Wednesday
141,23435572.002293143
190,0.0
2,11, 1,11, 0,14, 0.00,60.00,Wednesday
141,23288679.055254247
190,0.0
2,11, 1,11, 0,15, 0.00,60.00,Wednesday
141,23255289.328711458
190,0.0
2,11, 1,11, 0,16, 0.00,60.00,Wednesday
141,23274652.911484156
190,0.0
2,11, 1,11, 0,17, 0.00,60.00,Wednesday
141,23030743.638283364
190,0.0
2,11, 1,11, 0,18, 0.00,60.00,Wednesday
141,22797202.782177307
190,0.0
2,11, 1,11, 0,19, 0.00,60.00,Wednesday
141,22637097.28758473
190,0.0
2,11, 1,11, 0,20, 0.00,60.00,Wednesday
141,22624453.07743719
190,0.0
2,11, 1,11, 0,21, 0.00,60.00,Wednesday
141,22621540.094862815
190,0.0
2,11, 1,11, 0,22, 0.00,60.00,Wednesday
141,22122635.868863788
190,0.0
2,11, 1,11, 0,23, 0.00,60.00,Wednesday
141,21737687.57244638
190,0.0
2,11, 1,11, 0,24, 0.00,60.00,Wednesday
141,21769769.89742294
190,0.0
2,12, 1,12, 0, 1, 0.00,60.00,Thursday
141,21957940.46119197
190,0.0
2,12, 1,12, 0, 2, 0.00,60.00,Thursday
141,21986866.47925537
190,0.0
2,12, 1,12, 0, 3, 0.00,60.00,Thursday
141,21873460.75449688
190,0.0
2,12, 1,12, 0, 4, 0.00,60.00,Thursday
141,21895237.27916135
190,0.0
2,12, 1,12, 0, 5, 0.00,60.00,Thursday
141,22075801.9983875
190,0.0
2,12, 1,12, 0, 6, 0.00,60.00,Thursday
141,22495224.38052374
190,0.0
2,12, 1,12, 0, 7, 0.00,60.00,Thursday
141,22724112.110012718
190,0.0
2,12, 1,12, 0, 8, 0.00,60.00,Thursday
141,22783663.22347372
190,0.0
2,12, 1,12, 0, 9, 0.00,60.00,Thursday
141,22496224.690433532
190,0.0
2,12, 1,12, 0,10, 0.00,60.00,Thursday
141,21865653.6617429
190,0.0
2,12, 1,12, 0,11, 0.00,60.00,Thursday
141,21385737.54620602
190,0.0
2,12, 1,12, 0,12, 0.00,60.00,Thursday
141,21112273.906106245
190,0.0
2,12, 1,12, 0,13, 0.00,60.00,Thursday
141,20752665.22990377
190,0.0
2,12, 1,12, 0,14, 0.00,60.00,Thursday
141,20364049.963693283
190,0.0
2,12, 1,12, 0,15, 0.00,60.00,Thursday
141,20350972.213303603
190,0.0
2,12, 1,12, 0,16, 0.00,60.00,Thursday
141,20507731.478792116
190,0.0
2,12, 1,12, 0,17, 0.00,60.00,Thursday
141,21271551.07546721
190,0.0
2,12, 1,12, 0,18, 0.00,60.00,Thursday
141,21717758.414564688
190,0.0
2,12, 1,12, 0,19, 0.00,60.00,Thursday
141,21536115.254635297
190,0.0
2,12, 1,12, 0,20, 0.00,60.00,Thursday
141,21111623.57587623
190,0.0
2,12, 1,12, 0,21, 0.00,60.00,Thursday
141,20937454.67567285
190,0.0
2,12, 1,12, 0,22, 0.00,60.00,Thursday
141,20649678.528778315
190,0.0
2,12, 1,12, 0,23, 0.00,60.00,Thursday
141,20540891.36219205
190,0.0
2,12, 1,12, 0,24, 0.00,60.00,Thursday
141,20560520.77222853
190,0.0
2,13, 1,13, 0, 1, 0.00,60.00,Friday
141,20372909.345592365
190,0.0
2,13, 1,13, 0, 2, 0.00,60.00,Friday
141,20201350.152239773
190,0.0
2,13, 1,13, 0, 3, 0.00,60.00,Friday
141,19945598.205911785
190,0.0
2,13, 1,13, 0, 4, 0.00,60.00,Friday
141,19790747.191102948
190,0.0
2,13, 1,13, 0, 5, 0.00,60.00,Friday
141,19776564.627889685
190,0.0
2,13, 1,13, 0, 6, 0.00,60.00,Friday
141,19828021.7065748
190,0.0
2,13, 1,13, 0, 7, 0.00,60.00,Friday
141,19988362.260871556
190,0.0
2,13, 1,13, 0, 8, 0.00,60.00,Friday
141,19999151.35853356
190,0.0
2,13, 1,13, 0, 9, 0.00,60.00,Friday
141,19808817.68865406
190,0.0
2,13, 1,13, 0,10, 0.00,60.00,Friday
141,20284788.546739362
190,0.0
2,13, 1,13, 0,11, 0.00,60.00,Friday
141,20817248.16771332
190,0.0
2,13, 1,13, 0,12, 0.00,60.00,Friday
141,20850352.661670428
190,0.0
2,13, 1,13, 0,13, 0.00,60.00,Friday
141,20911676.215615083
190,0.0
2,13, 1,13, 0,14, 0.00,60.00,Friday
141,21236226.10918145
190,0.0
2,13, 1,13, 0,15, 0.00,60.00,Friday
141,21408604.734610885
190,0.0
2,13, 1,13, 0,16, 0.00,60.00,Friday
141,21332957.672924172
190,0.0
2,13, 1,13, 0,17, 0.00,60.00,Friday
141,21208605.243437544
190,0.0
2,13, 1,13, 0,18, 0.00,60.00,Friday
141,21143424.870419152
190,0.0
2,13, 1,13, 0,19, 0.00,60.00,Friday
141,21446233.296531282
190,0.0
2,13, 1,13, 0,20, 0.00,60.00,Friday
141,21992861.823141843
190,0.0
2,13, 1,13, 0,21, 0.00,60.00,Friday
141,22480671.166810647
190,0.0
2,13, 1,13, 0,22, 0.00,60.00,Friday
141,22786074.088786907
190,0.0
2,13, 1,13, 0,23, 0.00,60.00,Friday
141,22662975.21960978
190,0.0
2,13, 1,13, 0,24, 0.00,60.00,Friday
141,23951762.253989898
190,0.0
2,14, 1,14, 0, 1, 0.00,60.00,Saturday
141,24836543.011138298
190,0.0
2,14, 1,14, 0, 2, 0.00,60.00,Saturday
141,24457877.072267614
190,0.0
2,14, 1,14, 0, 3, 0.00,60.00,Saturday
141,24527068.111475367
190,0.0
2,14, 1,14, 0, 4, 0.00,60.00,Saturday
141,24381173.361069847
190,0.0
2,14, 1,14, 0, 5, 0.00,60.00,Saturday
141,24335813.20405386
190,0.0
2,14, 1,14, 0, 6, 0.00,60.00,Saturday
141,25274431.907020103
190,0.0
2,14, 1,14, 0, 7, 0.00,60.00,Saturday
141,25976787.652720567
190,0.0
2,14, 1,14, 0, 8, 0.00,60.00,Saturday
141,25734747.933016285
190,0.0
2,14, 1,14, 0, 9, 0.00,60.00,Saturday
141,26100866.79673535
190,0.0
2,14, 1,14, 0,10, 0.00,60.00,Saturday
141,26598268.31745591
190,0.0
2,14, 1,14, 0,11, 0.00,60.00,Saturday
141,26376145.961074892
190,0.0
2,14, 1,14, 0,12, 0.00,60.00,Saturday
141,26051149.063133147
190,0.0
2,14, 1,14, 0,13, 0.00,60.00,Saturday
141,25495861.411375627
190,0.0
2,14, 1,14, 0,14, 0.00,60.00,Saturday
141,24382041.56287175
190,0.0
2,14, 1,14, 0,15, 0.00,60.00,Saturday
141,24239863.554234236
190,0.0
2,14, 1,14, 0,16, 0.00,60.00,Saturday
141,24490576.830254402
190,0.0
2,14, 1,14, 0,17, 0.00,60.00,Saturday
141,24938771.074731246
190,0.0
2,14, 1,14, 0,18, 0.00,60.00,Saturday
141,25767454.73395827
190,0.0
2,14, 1,14, 0,19, 0.00,60.00,Saturday
141,25788020.29698696
190,0.0
2,14, 1,14, 0,20, 0.00,60.00,Saturday
141,25900708.733406194
190,0.0
2,14, 1,14, 0,21, 0.00,60.00,Saturday
141,25747488.45003827
190,0.0
2,14, 1,14, 0,22, 0.00,60.00,Saturday
141,25463197.48919893
190,0.0
2,14, 1,14, 0,23, 0.00,60.00,Saturday
141,25258882.32092207
190,0.0
2,14, 1,14, 0,24, 0.00,60.00,Saturday
141,25174224.616181254
190,0.0
2,15, 1,15, 0, 1, 0.00,60.00,Sunday
141,24677922.873900983
190,0.0
2,15, 1,15, 0, 2, 0.00,60.00,Sunday
141,23498975.18313729
190,0.0
2,15, 1,15, 0, 3, 0.00,60.00,Sunday
141,22929952.68878531
190,0.0
2,15, 1,15, 0, 4, 0.00,60.00,Sunday
141,22534253.19915406
190,0.0
2,15, 1,15, 0, 5, 0.00,60.00,Sunday
141,21800071.486761384
190,0.0
2,15, 1,15, 0, 6, 0.00,60.00,Sunday
141,21028272.30394796
190,0.0
2,15, 1,15, 0, 7, 0.00,60.00,Sunday
141,20268532.325415082
190,0.0
2,15, 1,15, 0, 8, 0.00,60.00,Sunday
141,19773949.30312581
190,0.0
2,15, 1,15, 0, 9, 0.00,60.00,Sunday
141,19405262.239476435
190,0.0
2,15, 1,15, 0,10, 0.00,60.00,Sunday
141,19373993.72116391
190,0.0
2,15, 1,15, 0,11, 0.00,60.00,Sunday
141,19813546.48566051
190,0.0
2,15, 1,15, 0,12, 0.00,60.00,Sunday
141,20907779.615626797
190,0.0
2,15, 1,15, 0,13, 0.00,60.00,Sunday
141,21723064.032844797
190,0.0
2,15, 1,15, 0,14, 0.00,60.00,Sunday
141,22074708.336310595
190,0.0
2,15, 1,15, 0,15, 0.00,60.00,Sunday
141,22228010.18765953
190,0.0
2,15, 1,15, 0,16, 0.00,60.00,Sunday
141,21988253.60286916
190,0.0
2,15, 1,15, 0,17, 0.00,60.00,Sunday
141,21828248.82442771
190,0.0
2,15, 1,15, 0,18, 0.00,60.00,Sunday
141,21913460.11552167
190,0.0
2,15, 1,15, 0,19, 0.00,60.00,Sunday
141,22107107.517067533
190,0.0
2,15, 1,15, 0,20, 0.00,60.00,Sunday
141,22349982.762828637
190,0.0
2,15, 1,15, 0,21, 0.00,60.00,Sunday
141,22850478.535542704
190,0.0
2,15, 1,15, 0,22, 0.00,60.00,Sunday
141,23077015.14383101
190,0.0
2,15, 1,15, 0,23, 0.00,60.00,Sunday
141,23107072.947005738
190,0.0
2,15, 1,15, 0,24, 0.00,60.00,Sunday
141,23231983.55189324
190,0.0
2,16, 1,16, 0, 1, 0.00,60.00,Monday
141,23681540.157966334
190,0.0
2,16, 1,16, 0, 2, 0.00,60.00,Monday
141,24100985.089253385
190,0.0
2,16, 1,16, 0, 3, 0.00,60.00,Monday
141,24333986.200146355
190,0.0
2,16, 1,16, 0, 4, 0.00,60.00,Monday
141,24502068.702888884
190,0.0
2,16, 1,16, 0, 5, 0.00,60.00,Monday
141,24756133.752985306
190,0.0
2,16, 1,16, 0, 6, 0.00,60.00,Monday
141,24973469.398301575
190,0.0
2,16, 1,16, 0, 7, 0.00,60.00,Monday
141,25426434.01158557
190,0.0
2,16, 1,16, 0, 8, 0.00,60.00,Monday
141,25851723.94898578
190,0.0
2,16, 1,16, 0, 9, 0.00,60.00,Monday
141,26029489.45218591
190,0.0
2,16, 1,16, 0,10, 0.00,60.00,Monday
141,26026447.038209938
190,0.0
2,16, 1,16, 0,11, 0.00,60.00,Monday
141,25056088.64536856
190,0.0
2,16, 1,16, 0,12, 0.00,60.00,Monday
141,24199766.14413043
190,0.0
2,16, 1,16, 0,13, 0.00,60.00,Monday
141,23536188.576366857
190,0.0
2,16, 1,16, 0,14, 0.00,60.00,Monday
141,23099919.536107007
190,0.0
2,16, 1,16, 0,15, 0.00,60.00,Monday
141,23060645.486917097
190,0.0
2,16, 1,16, 0,16, 0.00,60.00,Monday
141,23266016.086961657
190,0.0
2,16, 1,16, 0,17, 0.00,60.00,Monday
141,23752792.554819297
190,0.0
2,16, 1,16, 0,18, 0.00,60.00,Monday
141,24672900.695542436
190,0.0
2,16, 1,16, 0,19, 0.00,60.00,Monday
141,25637835.581882983
190,0.0
2,16, 1,16, 0,20, 0.00,60.00,Monday
141,26127344.811101645
190,0.0
2,16, 1,16, 0,21, 0.00,60.00,Monday
141,26512791.163679823
190,0.0
2,16, 1,16, 0,22, 0.00,60.00,Monday
141,26861424.367877916
190,0.0
2,16, 1,16, 0,23, 0.00,60.00,Monday
141,27387549.485131465
190,0.0
2,16, 1,16, 0,24, 0.00,60.00,Monday
141,27500629.04492812
190,0.0
2,17, 1,17, 0, 1, 0.00,60.00,Tuesday
141,27652976.748040512
190,0.0
2,17, 1,17, 0, 2, 0.00,60.00,Tuesday
141,28281190.39643073
190,0.0
2,17, 1,17, 0, 3, 0.00,60.00,Tuesday
141,28799942.407048225
190,0.0
2,17, 1,17, 0, 4, 0.00,60.00,Tuesday
141,29237942.02353233
190,0.0
2,17, 1,17, 0, 5, 0.00,60.00,Tuesday
141,29727242.763649255
190,0.0
2,17, 1,17, 0, 6, 0.00,60.00,Tuesday
141,30218639.149238255
190,0.0
2,17, 1,17, 0, 7, 0.00,60.00,Tuesday
141,30503490.05937231
190,0.0
2,17, 1,17, 0, 8, 0.00,60.00,Tuesday
141,30645026.683675714
190,0.0
2,17, 1,17, 0, 9, 0.00,60.00,Tuesday
141,30655485.216368854
190,0.0
2,17, 1,17, 0,10, 0.00,60.00,Tuesday
141,29530413.535415065
190,0.0
2,17, 1,17, 0,11, 0.00,60.00,Tuesday
141,27882900.487721525
190,0.0
2,17, 1,17, 0,12, 0.00,60.00,Tuesday
141,26463907.63680532
190,0.0
2,17, 1,17, 0,13, 0.00,60.00,Tuesday
141,25640347.20673436
190,0.0
2,17, 1,17, 0,14, 0.00,60.00,Tuesday
141,25471421.801302213
190,0.0
2,17, 1,17, 0,15, 0.00,60.00,Tuesday
141,25761594.381585516
190,0.0
2,17, 1,17, 0,16, 0.00,60.00,Tuesday
141,26588729.412875388
190,0.0
2,17, 1,17, 0,17, 0.00,60.00,Tuesday
141,27259187.196346167
190,0.0
2,17, 1,17, 0,18, 0.00,60.00,Tuesday
141,27367989.53003545
190,0.0
2,17, 1,17, 0,19, 0.00,60.00,Tuesday
141,27350385.484465018
190,0.0
2,17, 1,17, 0,20, 0.00,60.00,Tuesday
141,27525379.262897
190,0.0
2,17, 1,17, 0,21, 0.00,60.00,Tuesday
141,27794539.94567661
190,0.0
2,17, 1,17, 0,22, 0.00,60.00,Tuesday
141,27852908.515188858
190,0.0
2,17, 1,17, 0,23, 0.00,60.00,Tuesday
141,27896892.86734811
190,0.0
2,17, 1,17, 0,24, 0.00,60.00,Tuesday
141,28240827.766894512
190,0.0
2,18, 1,18, 0, 1, 0.00,60.00,Wednesday
141,28454749.771603808
190,0.0
2,18, 1,18, 0, 2, 0.00,60.00,Wednesday
141,28603761.2179185
190,0.0
2,18, 1,18, 0, 3, 0.00,60.00,Wednesday
141,28641167.192145247
190,0.0
2,18, 1,18, 0, 4, 0.00,60.00,Wednesday
141,28599080.89684008
190,0.0
2,18, 1,18, 0, 5, 0.00,60.00,Wednesday
141,28606087.58789864
190,0.0
2,18, 1,18, 0, 6, 0.00,60.00,Wednesday
141,28679703.014368556
190,0.0
2,18, 1,18, 0, 7, 0.00,60.00,Wednesday
141,29211504.180242095
190,0.0
2,18, 1,18, 0, 8, 0.00,60.00,Wednesday
141,29357615.212724295
190,0.0
2,18, 1,18, 0, 9, 0.00,60.00,Wednesday
141,29428682.311472133
190,0.0
2,18, 1,18, 0,10, 0.00,60.00,Wednesday
141,29379383.4464987
190,0.0
2,18, 1,18, 0,11, 0.00,60.00,Wednesday
141,28833711.941652924
190,0.0
2,18, 1,18, 0,12, 0.00,60.00,Wednesday
141,28415880.856499568
190,0.0
2,18, 1,18, 0,13, 0.00,60.00,Wednesday
141,28598233.457929395
190,0.0
2,18, 1,18, 0,14, 0.00,60.00,Wednesday
141,29003305.901512906
190,0.0
2,18, 1,18, 0,15, 0.00,60.00,Wednesday
141,29226103.338926762
190,0.0
2,18, 1,18, 0,16, 0.00,60.00,Wednesday
141,29699303.61171995
190,0.0
2,18, 1,18, 0,17, 0.00,60.00,Wednesday
141,29941762.675229862
190,0.0
2,18, 1,18, 0,18, 0.00,60.00,Wednesday
141,29772730.0628585
190,0.0
2,18, 1,18, 0,19, 0.00,60.00,Wednesday
141,29694224.061024427
190,0.0
2,18, 1,18, 0,20, 0.00,60.00,Wednesday
141,29782799.4185075
190,0.0
2,18, 1,18, 0,21, 0.00,60.00,Wednesday
141,29846935.11305564
190,0.0
2,18, 1,18, 0,22, 0.00,60.00,Wednesday
141,30001961.318600785
190,0.0
2,18, 1,18, 0,23, 0.00,60.00,Wednesday
141,30115318.699494835
190,0.0
2,18, 1,18, 0,24, 0.00,60.00,Wednesday
141,30265687.09608186
190,0.0