Program Version,EnergyPlus, Version 24.2.0-94a887817b, YMD=2025.04.24 13:21
1,5,Environment Title[],Latitude[deg],Longitude[deg],Time Zone[],Elevation[m]
2,8,Day of Simulation[],Month[],Day of Month[],DST Indicator[1=yes 0=no],Hour[],StartMinute[],EndMinute[],DayType
3,5,Cumulative Day of Simulation[],Month[],Day of Month[],DST Indicator[1=yes 0=no],DayType  ! When Daily Report Variables Requested
4,2,Cumulative Days of Simulation[],Month[]  ! When Monthly Report Variables Requested
5,1,Cumulative Days of Simulation[] ! When Run Period Report Variables Requested
6,1,Calendar Year of Simulation[] ! When Annual Report Variables Requested
141,1,ZONE_0599100000259776 IDEAL LOADS AIR SYSTEM,Zone Ideal Loads Supply Air Total Heating Energy [J] !Hourly
190,1,ZONE_0599100000259776 IDEAL LOADS AIR SYSTEM,Zone Ideal Loads Supply Air Total Cooling Energy [J] !Hourly
End of Data Dictionary
1,RUN PERIOD 1,  51.96,   4.45,   1.00,  -4.50
2,1, 1, 1, 0, 1, 0.00,60.00,Sunday
141,47822931.18914503
190,0.0
2,1, 1, 1, 0, 2, 0.00,60.00,Sunday
141,49348252.60462479
190,0.0
2,1, 1, 1, 0, 3, 0.00,60.00,Sunday
141,49390282.062913045
190,0.0
2,1, 1, 1, 0, 4, 0.00,60.00,Sunday
141,50541217.46334704
190,0.0
2,1, 1, 1, 0, 5, 0.00,60.00,Sunday
141,51372813.76123976
190,0.0
2,1, 1, 1, 0, 6, 0.00,60.00,Sunday
141,51575449.33583617
190,0.0
2,1, 1, 1, 0, 7, 0.00,60.00,Sunday
141,51851192.31596664
190,0.0
2,1, 1, 1, 0, 8, 0.00,60.00,Sunday
141,51915426.22142854
190,0.0
2,1, 1, 1, 0, 9, 0.00,60.00,Sunday
141,52006047.85116895
190,0.0
2,1, 1, 1, 0,10, 0.00,60.00,Sunday
141,51843149.1996719
190,0.0
2,1, 1, 1, 0,11, 0.00,60.00,Sunday
141,51129039.33506111
190,0.0
2,1, 1, 1, 0,12, 0.00,60.00,Sunday
141,49823594.29625513
190,0.0
2,1, 1, 1, 0,13, 0.00,60.00,Sunday
141,49173004.03862801
190,0.0
2,1, 1, 1, 0,14, 0.00,60.00,Sunday
141,48116035.22426966
190,0.0
2,1, 1, 1, 0,15, 0.00,60.00,Sunday
141,47210254.68622447
190,0.0
2,1, 1, 1, 0,16, 0.00,60.00,Sunday
141,47544911.91364128
190,0.0
2,1, 1, 1, 0,17, 0.00,60.00,Sunday
141,48007692.93838118
190,0.0
2,1, 1, 1, 0,18, 0.00,60.00,Sunday
141,47924060.98211905
190,0.0
2,1, 1, 1, 0,19, 0.00,60.00,Sunday
141,47888088.97115516
190,0.0
2,1, 1, 1, 0,20, 0.00,60.00,Sunday
141,47668577.78775336
190,0.0
2,1, 1, 1, 0,21, 0.00,60.00,Sunday
141,47440665.8041973
190,0.0
2,1, 1, 1, 0,22, 0.00,60.00,Sunday
141,47511019.120459646
190,0.0
2,1, 1, 1, 0,23, 0.00,60.00,Sunday
141,46516406.03472861
190,0.0
2,1, 1, 1, 0,24, 0.00,60.00,Sunday
141,45812226.239297345
190,0.0
2,2, 1, 2, 0, 1, 0.00,60.00,Monday
141,46012020.966502175
190,0.0
2,2, 1, 2, 0, 2, 0.00,60.00,Monday
141,45046674.95408738
190,0.0
2,2, 1, 2, 0, 3, 0.00,60.00,Monday
141,44308415.68974078
190,0.0
2,2, 1, 2, 0, 4, 0.00,60.00,Monday
141,43541427.44888076
190,0.0
2,2, 1, 2, 0, 5, 0.00,60.00,Monday
141,41798696.83555736
190,0.0
2,2, 1, 2, 0, 6, 0.00,60.00,Monday
141,40941087.20302569
190,0.0
2,2, 1, 2, 0, 7, 0.00,60.00,Monday
141,39573338.42431077
190,0.0
2,2, 1, 2, 0, 8, 0.00,60.00,Monday
141,37880633.185636856
190,0.0
2,2, 1, 2, 0, 9, 0.00,60.00,Monday
141,38235567.94972131
190,0.0
2,2, 1, 2, 0,10, 0.00,60.00,Monday
141,39251024.14904726
190,0.0
2,2, 1, 2, 0,11, 0.00,60.00,Monday
141,39856442.63429496
190,0.0
2,2, 1, 2, 0,12, 0.00,60.00,Monday
141,38967972.085965075
190,0.0
2,2, 1, 2, 0,13, 0.00,60.00,Monday
141,38531571.11524792
190,0.0
2,2, 1, 2, 0,14, 0.00,60.00,Monday
141,39285595.61916863
190,0.0
2,2, 1, 2, 0,15, 0.00,60.00,Monday
141,39633145.86714436
190,0.0
2,2, 1, 2, 0,16, 0.00,60.00,Monday
141,40444347.30263969
190,0.0
2,2, 1, 2, 0,17, 0.00,60.00,Monday
141,41275016.956681535
190,0.0
2,2, 1, 2, 0,18, 0.00,60.00,Monday
141,41516512.90442995
190,0.0
2,2, 1, 2, 0,19, 0.00,60.00,Monday
141,42485548.24244131
190,0.0
2,2, 1, 2, 0,20, 0.00,60.00,Monday
141,43408601.33591144
190,0.0
2,2, 1, 2, 0,21, 0.00,60.00,Monday
141,43704338.557147324
190,0.0
2,2, 1, 2, 0,22, 0.00,60.00,Monday
141,43866961.83612859
190,0.0
2,2, 1, 2, 0,23, 0.00,60.00,Monday
141,44097647.95257806
190,0.0
2,2, 1, 2, 0,24, 0.00,60.00,Monday
141,44350192.61066789
190,0.0
2,3, 1, 3, 0, 1, 0.00,60.00,Tuesday
141,44622545.1469009
190,0.0
2,3, 1, 3, 0, 2, 0.00,60.00,Tuesday
141,44811628.49954349
190,0.0
2,3, 1, 3, 0, 3, 0.00,60.00,Tuesday
141,44956371.96149398
190,0.0
2,3, 1, 3, 0, 4, 0.00,60.00,Tuesday
141,45218711.815892905
190,0.0
2,3, 1, 3, 0, 5, 0.00,60.00,Tuesday
141,46277156.82065278
190,0.0
2,3, 1, 3, 0, 6, 0.00,60.00,Tuesday
141,46942235.07246722
190,0.0
2,3, 1, 3, 0, 7, 0.00,60.00,Tuesday
141,47242612.81115299
190,0.0
2,3, 1, 3, 0, 8, 0.00,60.00,Tuesday
141,47130599.00900586
190,0.0
2,3, 1, 3, 0, 9, 0.00,60.00,Tuesday
141,47886092.92737235
190,0.0
2,3, 1, 3, 0,10, 0.00,60.00,Tuesday
141,48223646.38655423
190,0.0
2,3, 1, 3, 0,11, 0.00,60.00,Tuesday
141,48273641.16203703
190,0.0
2,3, 1, 3, 0,12, 0.00,60.00,Tuesday
141,48472044.79917648
190,0.0
2,3, 1, 3, 0,13, 0.00,60.00,Tuesday
141,49675156.90773552
190,0.0
2,3, 1, 3, 0,14, 0.00,60.00,Tuesday
141,50355914.90891447
190,0.0
2,3, 1, 3, 0,15, 0.00,60.00,Tuesday
141,50221795.63128004
190,0.0
2,3, 1, 3, 0,16, 0.00,60.00,Tuesday
141,50086981.5286258
190,0.0
2,3, 1, 3, 0,17, 0.00,60.00,Tuesday
141,50108240.29998792
190,0.0
2,3, 1, 3, 0,18, 0.00,60.00,Tuesday
141,50172484.847394
190,0.0
2,3, 1, 3, 0,19, 0.00,60.00,Tuesday
141,49930629.25140589
190,0.0
2,3, 1, 3, 0,20, 0.00,60.00,Tuesday
141,48924801.2827543
190,0.0
2,3, 1, 3, 0,21, 0.00,60.00,Tuesday
141,46307452.867155686
190,0.0
2,3, 1, 3, 0,22, 0.00,60.00,Tuesday
141,44945329.586502135
190,0.0
2,3, 1, 3, 0,23, 0.00,60.00,Tuesday
141,46013334.045721054
190,0.0
2,3, 1, 3, 0,24, 0.00,60.00,Tuesday
141,47788442.61899307
190,0.0
2,4, 1, 4, 0, 1, 0.00,60.00,Wednesday
141,48704424.89944265
190,0.0
2,4, 1, 4, 0, 2, 0.00,60.00,Wednesday
141,48659720.48246396
190,0.0
2,4, 1, 4, 0, 3, 0.00,60.00,Wednesday
141,48529817.40268887
190,0.0
2,4, 1, 4, 0, 4, 0.00,60.00,Wednesday
141,48956237.537407435
190,0.0
2,4, 1, 4, 0, 5, 0.00,60.00,Wednesday
141,50207380.996703714
190,0.0
2,4, 1, 4, 0, 6, 0.00,60.00,Wednesday
141,50013000.92183474
190,0.0
2,4, 1, 4, 0, 7, 0.00,60.00,Wednesday
141,50028877.15301356
190,0.0
2,4, 1, 4, 0, 8, 0.00,60.00,Wednesday
141,50525591.243698195
190,0.0
2,4, 1, 4, 0, 9, 0.00,60.00,Wednesday
141,50880265.50602229
190,0.0
2,4, 1, 4, 0,10, 0.00,60.00,Wednesday
141,51165735.96311169
190,0.0
2,4, 1, 4, 0,11, 0.00,60.00,Wednesday
141,49171895.05510266
190,0.0
2,4, 1, 4, 0,12, 0.00,60.00,Wednesday
141,45809278.50789118
190,0.0
2,4, 1, 4, 0,13, 0.00,60.00,Wednesday
141,44987318.61187814
190,0.0
2,4, 1, 4, 0,14, 0.00,60.00,Wednesday
141,44940424.98695025
190,0.0
2,4, 1, 4, 0,15, 0.00,60.00,Wednesday
141,44628130.20642216
190,0.0
2,4, 1, 4, 0,16, 0.00,60.00,Wednesday
141,46003591.70663032
190,0.0
2,4, 1, 4, 0,17, 0.00,60.00,Wednesday
141,48461936.46703522
190,0.0
2,4, 1, 4, 0,18, 0.00,60.00,Wednesday
141,50569641.93981621
190,0.0
2,4, 1, 4, 0,19, 0.00,60.00,Wednesday
141,52730761.72082865
190,0.0
2,4, 1, 4, 0,20, 0.00,60.00,Wednesday
141,53877596.27249023
190,0.0
2,4, 1, 4, 0,21, 0.00,60.00,Wednesday
141,54452175.56594725
190,0.0
2,4, 1, 4, 0,22, 0.00,60.00,Wednesday
141,55651910.12681813
190,0.0
2,4, 1, 4, 0,23, 0.00,60.00,Wednesday
141,55359934.07889352
190,0.0
2,4, 1, 4, 0,24, 0.00,60.00,Wednesday
141,54794786.362214744
190,0.0
2,5, 1, 5, 0, 1, 0.00,60.00,Thursday
141,55339158.17314446
190,0.0
2,5, 1, 5, 0, 2, 0.00,60.00,Thursday
141,55046408.433789834
190,0.0
2,5, 1, 5, 0, 3, 0.00,60.00,Thursday
141,54747502.49438338
190,0.0
2,5, 1, 5, 0, 4, 0.00,60.00,Thursday
141,55044917.686525
190,0.0
2,5, 1, 5, 0, 5, 0.00,60.00,Thursday
141,54584464.12053856
190,0.0
2,5, 1, 5, 0, 6, 0.00,60.00,Thursday
141,54425214.048218295
190,0.0
2,5, 1, 5, 0, 7, 0.00,60.00,Thursday
141,54876847.04478624
190,0.0
2,5, 1, 5, 0, 8, 0.00,60.00,Thursday
141,55239155.20972964
190,0.0
2,5, 1, 5, 0, 9, 0.00,60.00,Thursday
141,55338972.82085876
190,0.0
2,5, 1, 5, 0,10, 0.00,60.00,Thursday
141,55951824.29990304
190,0.0
2,5, 1, 5, 0,11, 0.00,60.00,Thursday
141,55705303.10199593
190,0.0
2,5, 1, 5, 0,12, 0.00,60.00,Thursday
141,54125930.91058278
190,0.0
2,5, 1, 5, 0,13, 0.00,60.00,Thursday
141,53432806.68391687
190,0.0
2,5, 1, 5, 0,14, 0.00,60.00,Thursday
141,52099465.38299918
190,0.0
2,5, 1, 5, 0,15, 0.00,60.00,Thursday
141,50892206.03646692
190,0.0
2,5, 1, 5, 0,16, 0.00,60.00,Thursday
141,51154001.61165237
190,0.0
2,5, 1, 5, 0,17, 0.00,60.00,Thursday
141,50542205.94683842
190,0.0
2,5, 1, 5, 0,18, 0.00,60.00,Thursday
141,49675173.16599897
190,0.0
2,5, 1, 5, 0,19, 0.00,60.00,Thursday
141,49579839.41007534
190,0.0
2,5, 1, 5, 0,20, 0.00,60.00,Thursday
141,49241232.12233534
190,0.0
2,5, 1, 5, 0,21, 0.00,60.00,Thursday
141,48854951.76951583
190,0.0
2,5, 1, 5, 0,22, 0.00,60.00,Thursday
141,48704391.104355864
190,0.0
2,5, 1, 5, 0,23, 0.00,60.00,Thursday
141,48784599.29484931
190,0.0
2,5, 1, 5, 0,24, 0.00,60.00,Thursday
141,48913890.10432849
190,0.0
2,6, 1, 6, 0, 1, 0.00,60.00,Friday
141,48980822.31926102
190,0.0
2,6, 1, 6, 0, 2, 0.00,60.00,Friday
141,49053803.30749852
190,0.0
2,6, 1, 6, 0, 3, 0.00,60.00,Friday
141,49965777.88642186
190,0.0
2,6, 1, 6, 0, 4, 0.00,60.00,Friday
141,50857836.7294597
190,0.0
2,6, 1, 6, 0, 5, 0.00,60.00,Friday
141,51309977.03022288
190,0.0
2,6, 1, 6, 0, 6, 0.00,60.00,Friday
141,51889854.35801807
190,0.0
2,6, 1, 6, 0, 7, 0.00,60.00,Friday
141,52783406.559356034
190,0.0
2,6, 1, 6, 0, 8, 0.00,60.00,Friday
141,53657252.283133894
190,0.0
2,6, 1, 6, 0, 9, 0.00,60.00,Friday
141,54736094.31651104
190,0.0
2,6, 1, 6, 0,10, 0.00,60.00,Friday
141,55437889.72217742
190,0.0
2,6, 1, 6, 0,11, 0.00,60.00,Friday
141,54894874.239614695
190,0.0
2,6, 1, 6, 0,12, 0.00,60.00,Friday
141,53983574.40381703
190,0.0
2,6, 1, 6, 0,13, 0.00,60.00,Friday
141,53589639.486066855
190,0.0
2,6, 1, 6, 0,14, 0.00,60.00,Friday
141,53407213.68296229
190,0.0
2,6, 1, 6, 0,15, 0.00,60.00,Friday
141,53037085.15155222
190,0.0
2,6, 1, 6, 0,16, 0.00,60.00,Friday
141,52202214.7443579
190,0.0
2,6, 1, 6, 0,17, 0.00,60.00,Friday
141,51310934.64071669
190,0.0
2,6, 1, 6, 0,18, 0.00,60.00,Friday
141,50802453.430919185
190,0.0
2,6, 1, 6, 0,19, 0.00,60.00,Friday
141,50300542.81422168
190,0.0
2,6, 1, 6, 0,20, 0.00,60.00,Friday
141,49338364.7397589
190,0.0
2,6, 1, 6, 0,21, 0.00,60.00,Friday
141,47079828.3050556
190,0.0
2,6, 1, 6, 0,22, 0.00,60.00,Friday
141,44421823.02880581
190,0.0
2,6, 1, 6, 0,23, 0.00,60.00,Friday
141,43306678.820237
190,0.0
2,6, 1, 6, 0,24, 0.00,60.00,Friday
141,43677479.74896445
190,0.0
2,7, 1, 7, 0, 1, 0.00,60.00,Saturday
141,45939722.47682013
190,0.0
2,7, 1, 7, 0, 2, 0.00,60.00,Saturday
141,48160222.925674945
190,0.0
2,7, 1, 7, 0, 3, 0.00,60.00,Saturday
141,47847099.431146
190,0.0
2,7, 1, 7, 0, 4, 0.00,60.00,Saturday
141,48026744.919566244
190,0.0
2,7, 1, 7, 0, 5, 0.00,60.00,Saturday
141,49545932.81745666
190,0.0
2,7, 1, 7, 0, 6, 0.00,60.00,Saturday
141,50746786.898773514
190,0.0
2,7, 1, 7, 0, 7, 0.00,60.00,Saturday
141,51470360.360063076
190,0.0
2,7, 1, 7, 0, 8, 0.00,60.00,Saturday
141,51860951.98859722
190,0.0
2,7, 1, 7, 0, 9, 0.00,60.00,Saturday
141,51091635.311496034
190,0.0
2,7, 1, 7, 0,10, 0.00,60.00,Saturday
141,50437132.9535713
190,0.0
2,7, 1, 7, 0,11, 0.00,60.00,Saturday
141,48337441.54304513
190,0.0
2,7, 1, 7, 0,12, 0.00,60.00,Saturday
141,46186844.84830177
190,0.0
2,7, 1, 7, 0,13, 0.00,60.00,Saturday
141,44522524.37772006
190,0.0
2,7, 1, 7, 0,14, 0.00,60.00,Saturday
141,43471447.97664231
190,0.0
2,7, 1, 7, 0,15, 0.00,60.00,Saturday
141,43407923.44576979
190,0.0
2,7, 1, 7, 0,16, 0.00,60.00,Saturday
141,43605221.72065839
190,0.0
2,7, 1, 7, 0,17, 0.00,60.00,Saturday
141,43637681.54006424
190,0.0
2,7, 1, 7, 0,18, 0.00,60.00,Saturday
141,44182562.643357046
190,0.0
2,7, 1, 7, 0,19, 0.00,60.00,Saturday
141,44771337.55757203
190,0.0
2,7, 1, 7, 0,20, 0.00,60.00,Saturday
141,45462157.99932301
190,0.0
2,7, 1, 7, 0,21, 0.00,60.00,Saturday
141,46001578.03181422
190,0.0
2,7, 1, 7, 0,22, 0.00,60.00,Saturday
141,45976483.43144507
190,0.0
2,7, 1, 7, 0,23, 0.00,60.00,Saturday
141,46134188.59096838
190,0.0
2,7, 1, 7, 0,24, 0.00,60.00,Saturday
141,46183048.84217825
190,0.0
2,8, 1, 8, 0, 1, 0.00,60.00,Sunday
141,45728623.8448169
190,0.0
2,8, 1, 8, 0, 2, 0.00,60.00,Sunday
141,45241065.67404344
190,0.0
2,8, 1, 8, 0, 3, 0.00,60.00,Sunday
141,44869542.63892654
190,0.0
2,8, 1, 8, 0, 4, 0.00,60.00,Sunday
141,44199556.164936684
190,0.0
2,8, 1, 8, 0, 5, 0.00,60.00,Sunday
141,43274604.080036044
190,0.0
2,8, 1, 8, 0, 6, 0.00,60.00,Sunday
141,42587173.413201496
190,0.0
2,8, 1, 8, 0, 7, 0.00,60.00,Sunday
141,42041379.92867374
190,0.0
2,8, 1, 8, 0, 8, 0.00,60.00,Sunday
141,41524271.37048273
190,0.0
2,8, 1, 8, 0, 9, 0.00,60.00,Sunday
141,40916340.001501344
190,0.0
2,8, 1, 8, 0,10, 0.00,60.00,Sunday
141,40680507.66464046
190,0.0
2,8, 1, 8, 0,11, 0.00,60.00,Sunday
141,40448541.254943706
190,0.0
2,8, 1, 8, 0,12, 0.00,60.00,Sunday
141,40463424.5029424
190,0.0
2,8, 1, 8, 0,13, 0.00,60.00,Sunday
141,40208705.961628065
190,0.0
2,8, 1, 8, 0,14, 0.00,60.00,Sunday
141,40207937.548385404
190,0.0
2,8, 1, 8, 0,15, 0.00,60.00,Sunday
141,41432353.982686795
190,0.0
2,8, 1, 8, 0,16, 0.00,60.00,Sunday
141,42299912.31724003
190,0.0
2,8, 1, 8, 0,17, 0.00,60.00,Sunday
141,42269726.535601415
190,0.0
2,8, 1, 8, 0,18, 0.00,60.00,Sunday
141,42674058.47404142
190,0.0
2,8, 1, 8, 0,19, 0.00,60.00,Sunday
141,42460152.64479098
190,0.0
2,8, 1, 8, 0,20, 0.00,60.00,Sunday
141,41692299.284011915
190,0.0
2,8, 1, 8, 0,21, 0.00,60.00,Sunday
141,41172441.73631985
190,0.0
2,8, 1, 8, 0,22, 0.00,60.00,Sunday
141,41426713.23270464
190,0.0
2,8, 1, 8, 0,23, 0.00,60.00,Sunday
141,41675501.30757971
190,0.0
2,8, 1, 8, 0,24, 0.00,60.00,Sunday
141,42251760.48892608
190,0.0
2,9, 1, 9, 0, 1, 0.00,60.00,Monday
141,42431415.43244498
190,0.0
2,9, 1, 9, 0, 2, 0.00,60.00,Monday
141,42576187.65953127
190,0.0
2,9, 1, 9, 0, 3, 0.00,60.00,Monday
141,42551375.24540926
190,0.0
2,9, 1, 9, 0, 4, 0.00,60.00,Monday
141,42343981.558179356
190,0.0
2,9, 1, 9, 0, 5, 0.00,60.00,Monday
141,41749522.325085424
190,0.0
2,9, 1, 9, 0, 6, 0.00,60.00,Monday
141,41121952.023564175
190,0.0
2,9, 1, 9, 0, 7, 0.00,60.00,Monday
141,40655287.15420719
190,0.0
2,9, 1, 9, 0, 8, 0.00,60.00,Monday
141,40381905.643727794
190,0.0
2,9, 1, 9, 0, 9, 0.00,60.00,Monday
141,39614039.66780777
190,0.0
2,9, 1, 9, 0,10, 0.00,60.00,Monday
141,37778133.91370776
190,0.0
2,9, 1, 9, 0,11, 0.00,60.00,Monday
141,36200541.57339893
190,0.0
2,9, 1, 9, 0,12, 0.00,60.00,Monday
141,35289563.13425182
190,0.0
2,9, 1, 9, 0,13, 0.00,60.00,Monday
141,34493514.66780685
190,0.0
2,9, 1, 9, 0,14, 0.00,60.00,Monday
141,33843842.623419605
190,0.0
2,9, 1, 9, 0,15, 0.00,60.00,Monday
141,33492980.584883254
190,0.0
2,9, 1, 9, 0,16, 0.00,60.00,Monday
141,33662054.508662954
190,0.0
2,9, 1, 9, 0,17, 0.00,60.00,Monday
141,34692324.095742226
190,0.0
2,9, 1, 9, 0,18, 0.00,60.00,Monday
141,35680220.83500518
190,0.0
2,9, 1, 9, 0,19, 0.00,60.00,Monday
141,35467797.898903534
190,0.0
2,9, 1, 9, 0,20, 0.00,60.00,Monday
141,33779270.45488186
190,0.0
2,9, 1, 9, 0,21, 0.00,60.00,Monday
141,32083353.808262844
190,0.0
2,9, 1, 9, 0,22, 0.00,60.00,Monday
141,30998291.26978095
190,0.0
2,9, 1, 9, 0,23, 0.00,60.00,Monday
141,30683052.94649208
190,0.0
2,9, 1, 9, 0,24, 0.00,60.00,Monday
141,30611215.078275383
190,0.0
2,10, 1,10, 0, 1, 0.00,60.00,Tuesday
141,30843801.49718222
190,0.0
2,10, 1,10, 0, 2, 0.00,60.00,Tuesday
141,30915663.740266677
190,0.0
2,10, 1,10, 0, 3, 0.00,60.00,Tuesday
141,30736139.22592734
190,0.0
2,10, 1,10, 0, 4, 0.00,60.00,Tuesday
141,31005781.189415522
190,0.0
2,10, 1,10, 0, 5, 0.00,60.00,Tuesday
141,30976510.815644756
190,0.0
2,10, 1,10, 0, 6, 0.00,60.00,Tuesday
141,30845781.475154344
190,0.0
2,10, 1,10, 0, 7, 0.00,60.00,Tuesday
141,30753285.93621561
190,0.0
2,10, 1,10, 0, 8, 0.00,60.00,Tuesday
141,30448803.757343076
190,0.0
2,10, 1,10, 0, 9, 0.00,60.00,Tuesday
141,30092400.948150802
190,0.0
2,10, 1,10, 0,10, 0.00,60.00,Tuesday
141,29666115.070501067
190,0.0
2,10, 1,10, 0,11, 0.00,60.00,Tuesday
141,29097693.77149971
190,0.0
2,10, 1,10, 0,12, 0.00,60.00,Tuesday
141,28466373.359834895
190,0.0
2,10, 1,10, 0,13, 0.00,60.00,Tuesday
141,28313143.259142116
190,0.0
2,10, 1,10, 0,14, 0.00,60.00,Tuesday
141,30339550.487703256
190,0.0
2,10, 1,10, 0,15, 0.00,60.00,Tuesday
141,31987969.491469916
190,0.0
2,10, 1,10, 0,16, 0.00,60.00,Tuesday
141,33032229.371504422
190,0.0
2,10, 1,10, 0,17, 0.00,60.00,Tuesday
141,34170320.036655135
190,0.0
2,10, 1,10, 0,18, 0.00,60.00,Tuesday
141,35692181.37133483
190,0.0
2,10, 1,10, 0,19, 0.00,60.00,Tuesday
141,36652327.60315214
190,0.0
2,10, 1,10, 0,20, 0.00,60.00,Tuesday
141,37537666.938706346
190,0.0
2,10, 1,10, 0,21, 0.00,60.00,Tuesday
141,38849503.34121871
190,0.0
2,10, 1,10, 0,22, 0.00,60.00,Tuesday
141,39864333.44127579
190,0.0
2,10, 1,10, 0,23, 0.00,60.00,Tuesday
141,40120330.07979899
190,0.0
2,10, 1,10, 0,24, 0.00,60.00,Tuesday
141,41286528.23407817
190,0.0
2,11, 1,11, 0, 1, 0.00,60.00,Wednesday
141,41983013.63250953
190,0.0
2,11, 1,11, 0, 2, 0.00,60.00,Wednesday
141,42668111.59797639
190,0.0
2,11, 1,11, 0, 3, 0.00,60.00,Wednesday
141,43545299.127084866
190,0.0
2,11, 1,11, 0, 4, 0.00,60.00,Wednesday
141,43603370.73775483
190,0.0
2,11, 1,11, 0, 5, 0.00,60.00,Wednesday
141,43699672.721026085
190,0.0
2,11, 1,11, 0, 6, 0.00,60.00,Wednesday
141,43907569.56096588
190,0.0
2,11, 1,11, 0, 7, 0.00,60.00,Wednesday
141,44281676.10787669
190,0.0
2,11, 1,11, 0, 8, 0.00,60.00,Wednesday
141,44619393.83354793
190,0.0
2,11, 1,11, 0, 9, 0.00,60.00,Wednesday
141,44679149.531817704
190,0.0
2,11, 1,11, 0,10, 0.00,60.00,Wednesday
141,44545958.65452497
190,0.0
2,11, 1,11, 0,11, 0.00,60.00,Wednesday
141,44210561.034928665
190,0.0
2,11, 1,11, 0,12, 0.00,60.00,Wednesday
141,43550794.383630365
190,0.0
2,11, 1,11, 0,13, 0.00,60.00,Wednesday
141,42945167.89917288
190,0.0
2,11, 1,11, 0,14, 0.00,60.00,Wednesday
141,42515774.31369825
190,0.0
2,11, 1,11, 0,15, 0.00,60.00,Wednesday
141,42130957.45431294
190,0.0
2,11, 1,11, 0,16, 0.00,60.00,Wednesday
141,41737708.95337842
190,0.0
2,11, 1,11, 0,17, 0.00,60.00,Wednesday
141,40921552.09743399
190,0.0
2,11, 1,11, 0,18, 0.00,60.00,Wednesday
141,40152588.571596265
190,0.0
2,11, 1,11, 0,19, 0.00,60.00,Wednesday
141,39571263.42313076
190,0.0
2,11, 1,11, 0,20, 0.00,60.00,Wednesday
141,39304093.02164402
190,0.0
2,11, 1,11, 0,21, 0.00,60.00,Wednesday
141,39136042.966668725
190,0.0
2,11, 1,11, 0,22, 0.00,60.00,Wednesday
141,38289581.3564612
190,0.0
2,11, 1,11, 0,23, 0.00,60.00,Wednesday
141,37654479.20266945
190,0.0
2,11, 1,11, 0,24, 0.00,60.00,Wednesday
141,37664836.626618505
190,0.0
2,12, 1,12, 0, 1, 0.00,60.00,Thursday
141,37915813.44140678
190,0.0
2,12, 1,12, 0, 2, 0.00,60.00,Thursday
141,37928836.913084105
190,0.0
2,12, 1,12, 0, 3, 0.00,60.00,Thursday
141,37730758.7112739
190,0.0
2,12, 1,12, 0, 4, 0.00,60.00,Thursday
141,37740309.044173904
190,0.0
2,12, 1,12, 0, 5, 0.00,60.00,Thursday
141,37993295.323638916
190,0.0
2,12, 1,12, 0, 6, 0.00,60.00,Thursday
141,38606706.40962889
190,0.0
2,12, 1,12, 0, 7, 0.00,60.00,Thursday
141,38937077.892274715
190,0.0
2,12, 1,12, 0, 8, 0.00,60.00,Thursday
141,39016441.81165251
190,0.0
2,12, 1,12, 0, 9, 0.00,60.00,Thursday
141,38580844.47850133
190,0.0
2,12, 1,12, 0,10, 0.00,60.00,Thursday
141,37635572.50621218
190,0.0
2,12, 1,12, 0,11, 0.00,60.00,Thursday
141,36915511.60208042
190,0.0
2,12, 1,12, 0,12, 0.00,60.00,Thursday
141,36507491.50104907
190,0.0
2,12, 1,12, 0,13, 0.00,60.00,Thursday
141,35989313.806436844
190,0.0
2,12, 1,12, 0,14, 0.00,60.00,Thursday
141,35449160.751672685
190,0.0
2,12, 1,12, 0,15, 0.00,60.00,Thursday
141,35480770.61774373
190,0.0
2,12, 1,12, 0,16, 0.00,60.00,Thursday
141,35764740.760814466
190,0.0
2,12, 1,12, 0,17, 0.00,60.00,Thursday
141,36945737.39810108
190,0.0
2,12, 1,12, 0,18, 0.00,60.00,Thursday
141,37640632.6005343
190,0.0
2,12, 1,12, 0,19, 0.00,60.00,Thursday
141,37390433.93710329
190,0.0
2,12, 1,12, 0,20, 0.00,60.00,Thursday
141,36773936.470637
190,0.0
2,12, 1,12, 0,21, 0.00,60.00,Thursday
141,36523607.282394394
190,0.0
2,12, 1,12, 0,22, 0.00,60.00,Thursday
141,36081436.51963282
190,0.0
2,12, 1,12, 0,23, 0.00,60.00,Thursday
141,35874234.95346889
190,0.0
2,12, 1,12, 0,24, 0.00,60.00,Thursday
141,35828007.02636441
190,0.0
2,13, 1,13, 0, 1, 0.00,60.00,Friday
141,35446560.75262568
190,0.0
2,13, 1,13, 0, 2, 0.00,60.00,Friday
141,35070926.51717806
190,0.0
2,13, 1,13, 0, 3, 0.00,60.00,Friday
141,34558340.92474852
190,0.0
2,13, 1,13, 0, 4, 0.00,60.00,Friday
141,34189636.74400888
190,0.0
2,13, 1,13, 0, 5, 0.00,60.00,Friday
141,34026338.057085246
190,0.0
2,13, 1,13, 0, 6, 0.00,60.00,Friday
141,33961221.36349216
190,0.0
2,13, 1,13, 0, 7, 0.00,60.00,Friday
141,34072160.839157864
190,0.0
2,13, 1,13, 0, 8, 0.00,60.00,Friday
141,33977953.6984995
190,0.0
2,13, 1,13, 0, 9, 0.00,60.00,Friday
141,33593292.46017571
190,0.0
2,13, 1,13, 0,10, 0.00,60.00,Friday
141,34217591.918337956
190,0.0
2,13, 1,13, 0,11, 0.00,60.00,Friday
141,34949936.9045989
190,0.0
2,13, 1,13, 0,12, 0.00,60.00,Friday
141,34964321.41133599
190,0.0
2,13, 1,13, 0,13, 0.00,60.00,Friday
141,35053012.084832944
190,0.0
2,13, 1,13, 0,14, 0.00,60.00,Friday
141,35567452.01701476
190,0.0
2,13, 1,13, 0,15, 0.00,60.00,Friday
141,35883690.90122517
190,0.0
2,13, 1,13, 0,16, 0.00,60.00,Friday
141,35852527.76569763
190,0.0
2,13, 1,13, 0,17, 0.00,60.00,Friday
141,35749622.682826206
190,0.0
2,13, 1,13, 0,18, 0.00,60.00,Friday
141,35705776.971387155
190,0.0
2,13, 1,13, 0,19, 0.00,60.00,Friday
141,36182649.86347225
190,0.0
2,13, 1,13, 0,20, 0.00,60.00,Friday
141,37016663.605461925
190,0.0
2,13, 1,13, 0,21, 0.00,60.00,Friday
141,37791800.18518866
190,0.0
2,13, 1,13, 0,22, 0.00,60.00,Friday
141,38364273.08969475
190,0.0
2,13, 1,13, 0,23, 0.00,60.00,Friday
141,38376004.06614005
190,0.0
2,13, 1,13, 0,24, 0.00,60.00,Friday
141,40552887.23296796
190,0.0
2,14, 1,14, 0, 1, 0.00,60.00,Saturday
141,42149015.93173659
190,0.0
2,14, 1,14, 0, 2, 0.00,60.00,Saturday
141,41846208.846818574
190,0.0
2,14, 1,14, 0, 3, 0.00,60.00,Saturday
141,42183903.04441041
190,0.0
2,14, 1,14, 0, 4, 0.00,60.00,Saturday
141,42170907.60484573
190,0.0
2,14, 1,14, 0, 5, 0.00,60.00,Saturday
141,42283333.481747106
190,0.0
2,14, 1,14, 0, 6, 0.00,60.00,Saturday
141,43866520.797359765
190,0.0
2,14, 1,14, 0, 7, 0.00,60.00,Saturday
141,45132096.79425419
190,0.0
2,14, 1,14, 0, 8, 0.00,60.00,Saturday
141,45035780.89226295
190,0.0
2,14, 1,14, 0, 9, 0.00,60.00,Saturday
141,45893017.855523035
190,0.0
2,14, 1,14, 0,10, 0.00,60.00,Saturday
141,46970991.81185402
190,0.0
2,14, 1,14, 0,11, 0.00,60.00,Saturday
141,46958468.57195516
190,0.0
2,14, 1,14, 0,12, 0.00,60.00,Saturday
141,46740840.36677575
190,0.0
2,14, 1,14, 0,13, 0.00,60.00,Saturday
141,46102274.88389501
190,0.0
2,14, 1,14, 0,14, 0.00,60.00,Saturday
141,44535356.33377203
190,0.0
2,14, 1,14, 0,15, 0.00,60.00,Saturday
141,44317177.332725234
190,0.0
2,14, 1,14, 0,16, 0.00,60.00,Saturday
141,44584356.533190936
190,0.0
2,14, 1,14, 0,17, 0.00,60.00,Saturday
141,45095972.62141498
190,0.0
2,14, 1,14, 0,18, 0.00,60.00,Saturday
141,46239642.3835593
190,0.0
2,14, 1,14, 0,19, 0.00,60.00,Saturday
141,46298346.12518562
190,0.0
2,14, 1,14, 0,20, 0.00,60.00,Saturday
141,46607288.18042052
190,0.0
2,14, 1,14, 0,21, 0.00,60.00,Saturday
141,46598539.849204175
190,0.0
2,14, 1,14, 0,22, 0.00,60.00,Saturday
141,46439347.348765716
190,0.0
2,14, 1,14, 0,23, 0.00,60.00,Saturday
141,46414908.59890107
190,0.0
2,14, 1,14, 0,24, 0.00,60.00,Saturday
141,46559342.806484826
190,0.0
2,15, 1,15, 0, 1, 0.00,60.00,Sunday
141,46059933.330428846
190,0.0
2,15, 1,15, 0, 2, 0.00,60.00,Sunday
141,44497650.475541204
190,0.0
2,15, 1,15, 0, 3, 0.00,60.00,Sunday
141,43783459.33642447
190,0.0
2,15, 1,15, 0, 4, 0.00,60.00,Sunday
141,43249968.21024015
190,0.0
2,15, 1,15, 0, 5, 0.00,60.00,Sunday
141,42124414.30452107
190,0.0
2,15, 1,15, 0, 6, 0.00,60.00,Sunday
141,40861088.21520467
190,0.0
2,15, 1,15, 0, 7, 0.00,60.00,Sunday
141,39544850.34573689
190,0.0
2,15, 1,15, 0, 8, 0.00,60.00,Sunday
141,38564968.087815136
190,0.0
2,15, 1,15, 0, 9, 0.00,60.00,Sunday
141,37722089.65151175
190,0.0
2,15, 1,15, 0,10, 0.00,60.00,Sunday
141,37339477.680466935
190,0.0
2,15, 1,15, 0,11, 0.00,60.00,Sunday
141,37624940.85200544
190,0.0
2,15, 1,15, 0,12, 0.00,60.00,Sunday
141,38863218.19377831
190,0.0
2,15, 1,15, 0,13, 0.00,60.00,Sunday
141,39680736.87794984
190,0.0
2,15, 1,15, 0,14, 0.00,60.00,Sunday
141,39846384.349858396
190,0.0
2,15, 1,15, 0,15, 0.00,60.00,Sunday
141,39791142.620099135
190,0.0
2,15, 1,15, 0,16, 0.00,60.00,Sunday
141,39229911.861967444
190,0.0
2,15, 1,15, 0,17, 0.00,60.00,Sunday
141,38854575.62136065
190,0.0
2,15, 1,15, 0,18, 0.00,60.00,Sunday
141,38883398.49409894
190,0.0
2,15, 1,15, 0,19, 0.00,60.00,Sunday
141,39079176.53740913
190,0.0
2,15, 1,15, 0,20, 0.00,60.00,Sunday
141,39351089.8521376
190,0.0
2,15, 1,15, 0,21, 0.00,60.00,Sunday
141,40039897.92101188
190,0.0
2,15, 1,15, 0,22, 0.00,60.00,Sunday
141,40370140.15396214
190,0.0
2,15, 1,15, 0,23, 0.00,60.00,Sunday
141,40462249.00810619
190,0.0
2,15, 1,15, 0,24, 0.00,60.00,Sunday
141,40745436.29971007
190,0.0
2,16, 1,16, 0, 1, 0.00,60.00,Monday
141,41553706.94247232
190,0.0
2,16, 1,16, 0, 2, 0.00,60.00,Monday
141,42345850.10054066
190,0.0
2,16, 1,16, 0, 3, 0.00,60.00,Monday
141,42871742.12035714
190,0.0
2,16, 1,16, 0, 4, 0.00,60.00,Monday
141,43284406.23122208
190,0.0
2,16, 1,16, 0, 5, 0.00,60.00,Monday
141,43792886.75799982
190,0.0
2,16, 1,16, 0, 6, 0.00,60.00,Monday
141,44217530.61062727
190,0.0
2,16, 1,16, 0, 7, 0.00,60.00,Monday
141,44975256.47284189
190,0.0
2,16, 1,16, 0, 8, 0.00,60.00,Monday
141,45681053.81306404
190,0.0
2,16, 1,16, 0, 9, 0.00,60.00,Monday
141,46013429.07335437
190,0.0
2,16, 1,16, 0,10, 0.00,60.00,Monday
141,46078174.999437995
190,0.0
2,16, 1,16, 0,11, 0.00,60.00,Monday
141,44699362.60814651
190,0.0
2,16, 1,16, 0,12, 0.00,60.00,Monday
141,43456566.952937186
190,0.0
2,16, 1,16, 0,13, 0.00,60.00,Monday
141,42402629.798562855
190,0.0
2,16, 1,16, 0,14, 0.00,60.00,Monday
141,41592414.862136886
190,0.0
2,16, 1,16, 0,15, 0.00,60.00,Monday
141,41384768.60918343
190,0.0
2,16, 1,16, 0,16, 0.00,60.00,Monday
141,41608957.63138071
190,0.0
2,16, 1,16, 0,17, 0.00,60.00,Monday
141,42314733.85179853
190,0.0
2,16, 1,16, 0,18, 0.00,60.00,Monday
141,43696942.1950217
190,0.0
2,16, 1,16, 0,19, 0.00,60.00,Monday
141,45132709.51276564
190,0.0
2,16, 1,16, 0,20, 0.00,60.00,Monday
141,45839616.08452542
190,0.0
2,16, 1,16, 0,21, 0.00,60.00,Monday
141,46387795.50951701
190,0.0
2,16, 1,16, 0,22, 0.00,60.00,Monday
141,46886512.761148095
190,0.0
2,16, 1,16, 0,23, 0.00,60.00,Monday
141,47654718.38806023
190,0.0
2,16, 1,16, 0,24, 0.00,60.00,Monday
141,47812040.740530774
190,0.0
2,17, 1,17, 0, 1, 0.00,60.00,Tuesday
141,48065411.754171625
190,0.0
2,17, 1,17, 0, 2, 0.00,60.00,Tuesday
141,49111849.58479424
190,0.0
2,17, 1,17, 0, 3, 0.00,60.00,Tuesday
141,50073162.13518871
190,0.0
2,17, 1,17, 0, 4, 0.00,60.00,Tuesday
141,50949272.37515509
190,0.0
2,17, 1,17, 0, 5, 0.00,60.00,Tuesday
141,51905305.736265495
190,0.0
2,17, 1,17, 0, 6, 0.00,60.00,Tuesday
141,52857878.058623865
190,0.0
2,17, 1,17, 0, 7, 0.00,60.00,Tuesday
141,53496751.78773959
190,0.0
2,17, 1,17, 0, 8, 0.00,60.00,Tuesday
141,53920291.205520496
190,0.0
2,17, 1,17, 0, 9, 0.00,60.00,Tuesday
141,54149339.72443809
190,0.0
2,17, 1,17, 0,10, 0.00,60.00,Tuesday
141,52682937.828854516
190,0.0
2,17, 1,17, 0,11, 0.00,60.00,Tuesday
141,50427201.99944818
190,0.0
2,17, 1,17, 0,12, 0.00,60.00,Tuesday
141,48448781.48026167
190,0.0
2,17, 1,17, 0,13, 0.00,60.00,Tuesday
141,47196551.18045119
190,0.0
2,17, 1,17, 0,14, 0.00,60.00,Tuesday
141,46683627.323411286
190,0.0
2,17, 1,17, 0,15, 0.00,60.00,Tuesday
141,46615457.13783458
190,0.0
2,17, 1,17, 0,16, 0.00,60.00,Tuesday
141,47178262.294065446
190,0.0
2,17, 1,17, 0,17, 0.00,60.00,Tuesday
141,47445267.60320818
190,0.0
2,17, 1,17, 0,18, 0.00,60.00,Tuesday
141,46914730.6284939
190,0.0
2,17, 1,17, 0,19, 0.00,60.00,Tuesday
141,46321102.59666602
190,0.0
2,17, 1,17, 0,20, 0.00,60.00,Tuesday
141,46183393.68842104
190,0.0
2,17, 1,17, 0,21, 0.00,60.00,Tuesday
141,46349376.251854606
190,0.0
2,17, 1,17, 0,22, 0.00,60.00,Tuesday
141,46331790.350190446
190,0.0
2,17, 1,17, 0,23, 0.00,60.00,Tuesday
141,46392014.758281626
190,0.0
2,17, 1,17, 0,24, 0.00,60.00,Tuesday
141,46973384.76778218
190,0.0
2,18, 1,18, 0, 1, 0.00,60.00,Wednesday
141,47431378.44144894
190,0.0
2,18, 1,18, 0, 2, 0.00,60.00,Wednesday
141,47883232.57175169
190,0.0
2,18, 1,18, 0, 3, 0.00,60.00,Wednesday
141,48246674.340891846
190,0.0
2,18, 1,18, 0, 4, 0.00,60.00,Wednesday
141,48515947.09018984
190,0.0
2,18, 1,18, 0, 5, 0.00,60.00,Wednesday
141,48837916.901495054
190,0.0
2,18, 1,18, 0, 6, 0.00,60.00,Wednesday
141,49220368.23649356
190,0.0
2,18, 1,18, 0, 7, 0.00,60.00,Wednesday
141,50245315.24797334
190,0.0
2,18, 1,18, 0, 8, 0.00,60.00,Wednesday
141,50655610.2194863
190,0.0
2,18, 1,18, 0, 9, 0.00,60.00,Wednesday
141,50920453.08573057
190,0.0
2,18, 1,18, 0,10, 0.00,60.00,Wednesday
141,50979763.62684158
190,0.0
2,18, 1,18, 0,11, 0.00,60.00,Wednesday
141,50274724.2648765
190,0.0
2,18, 1,18, 0,12, 0.00,60.00,Wednesday
141,49731744.75090329
190,0.0
2,18, 1,18, 0,13, 0.00,60.00,Wednesday
141,50044191.77572236
190,0.0
2,18, 1,18, 0,14, 0.00,60.00,Wednesday
141,50639334.561252855
190,0.0
2,18, 1,18, 0,15, 0.00,60.00,Wednesday
141,50915739.5204355
190,0.0
2,18, 1,18, 0,16, 0.00,60.00,Wednesday
141,51536442.1783323
190,0.0
2,18, 1,18, 0,17, 0.00,60.00,Wednesday
141,51804843.65624374
190,0.0
2,18, 1,18, 0,18, 0.00,60.00,Wednesday
141,51473646.06882379
190,0.0
2,18, 1,18, 0,19, 0.00,60.00,Wednesday
141,51313314.82921883
190,0.0
2,18, 1,18, 0,20, 0.00,60.00,Wednesday
141,51434559.114182174
190,0.0
2,18, 1,18, 0,21, 0.00,60.00,Wednesday
141,51535659.9081641
190,0.0
2,18, 1,18, 0,22, 0.00,60.00,Wednesday
141,51776060.422356054
190,0.0
2,18, 1,18, 0,23, 0.00,60.00,Wednesday
141,51951324.73424352
190,0.0
2,18, 1,18, 0,24, 0.00,60.00,Wednesday
141,52176817.21529362
190,0.0
2,19, 1,19, 0, 1, 0.00,60.00,Thursday
141,51925212.914207645
190,0.0
2,19, 1,19, 0, 2, 0.00,60.00,Thursday
141,52050390.53333898
190,0.0
2,19, 1,19, 0, 3, 0.00,60.00,Thursday