Program Version,EnergyPlus, Version 24.2.0-94a887817b, YMD=2025.04.24 13:19
1,5,Environment Title[],Latitude[deg],Longitude[deg],Time Zone[],Elevation[m]
2,8,Day of Simulation[],Month[],Day of Month[],DST Indicator[1=yes 0=no],Hour[],StartMinute[],EndMinute[],DayType
3,5,Cumulative Day of Simulation[],Month[],Day of Month[],DST Indicator[1=yes 0=no],DayType  ! When Daily Report Variables Requested
4,2,Cumulative Days of Simulation[],Month[]  ! When Monthly Report Variables Requested
5,1,Cumulative Days of Simulation[] ! When Run Period Report Variables Requested
6,1,Calendar Year of Simulation[] ! When Annual Report Variables Requested
141,1,ZONE_0599100000154522 IDEAL LOADS AIR SYSTEM,Zone Ideal Loads Supply Air Total Heating Energy [J] !Hourly
190,1,ZONE_0599100000154522 IDEAL LOADS AIR SYSTEM,Zone Ideal Loads Supply Air Total Cooling Energy [J] !Hourly
End of Data Dictionary
1,RUN PERIOD 1,  51.96,   4.45,   1.00,  -4.50
2,1, 1, 1, 0, 1, 0.00,60.00,Sunday
141,40060691.87053249
190,0.0
2,1, 1, 1, 0, 2, 0.00,60.00,Sunday
141,41547696.32652602
190,0.0
2,1, 1, 1, 0, 3, 0.00,60.00,Sunday
141,41525947.223152615
190,0.0
2,1, 1, 1, 0, 4, 0.00,60.00,Sunday
141,42620567.68677971
190,0.0
2,1, 1, 1, 0, 5, 0.00,60.00,Sunday
141,43363298.75863857
190,0.0
2,1, 1, 1, 0, 6, 0.00,60.00,Sunday
141,43437793.003043704
190,0.0
2,1, 1, 1, 0, 7, 0.00,60.00,Sunday
141,43562298.6054036
190,0.0
2,1, 1, 1, 0, 8, 0.00,60.00,Sunday
141,43451958.74891906
190,0.0
2,1, 1, 1, 0, 9, 0.00,60.00,Sunday
141,43353458.242121115
190,0.0
2,1, 1, 1, 0,10, 0.00,60.00,Sunday
141,42987454.68809478
190,0.0
2,1, 1, 1, 0,11, 0.00,60.00,Sunday
141,42059649.01671513
190,0.0
2,1, 1, 1, 0,12, 0.00,60.00,Sunday
141,40563769.07168456
190,0.0
2,1, 1, 1, 0,13, 0.00,60.00,Sunday
141,39826549.264381886
190,0.0
2,1, 1, 1, 0,14, 0.00,60.00,Sunday
141,38813256.734529875
190,0.0
2,1, 1, 1, 0,15, 0.00,60.00,Sunday
141,38110424.8765471
190,0.0
2,1, 1, 1, 0,16, 0.00,60.00,Sunday
141,38794701.636692636
190,0.0
2,1, 1, 1, 0,17, 0.00,60.00,Sunday
141,39658063.18912756
190,0.0
2,1, 1, 1, 0,18, 0.00,60.00,Sunday
141,39934443.64750302
190,0.0
2,1, 1, 1, 0,19, 0.00,60.00,Sunday
141,40177642.08775084
190,0.0
2,1, 1, 1, 0,20, 0.00,60.00,Sunday
141,40134356.307219125
190,0.0
2,1, 1, 1, 0,21, 0.00,60.00,Sunday
141,39993559.22421011
190,0.0
2,1, 1, 1, 0,22, 0.00,60.00,Sunday
141,40087471.03586215
190,0.0
2,1, 1, 1, 0,23, 0.00,60.00,Sunday
141,39047840.83079395
190,0.0
2,1, 1, 1, 0,24, 0.00,60.00,Sunday
141,38273948.16060876
190,0.0
2,2, 1, 2, 0, 1, 0.00,60.00,Monday
141,38407938.399728276
190,0.0
2,2, 1, 2, 0, 2, 0.00,60.00,Monday
141,37356856.129499644
190,0.0
2,2, 1, 2, 0, 3, 0.00,60.00,Monday
141,36548741.87174656
190,0.0
2,2, 1, 2, 0, 4, 0.00,60.00,Monday
141,35730769.66565521
190,0.0
2,2, 1, 2, 0, 5, 0.00,60.00,Monday
141,33947024.66936593
190,0.0
2,2, 1, 2, 0, 6, 0.00,60.00,Monday
141,33099301.541782662
190,0.0
2,2, 1, 2, 0, 7, 0.00,60.00,Monday
141,31771107.173998468
190,0.0
2,2, 1, 2, 0, 8, 0.00,60.00,Monday
141,30155260.02213475
190,0.0
2,2, 1, 2, 0, 9, 0.00,60.00,Monday
141,30669754.977285985
190,0.0
2,2, 1, 2, 0,10, 0.00,60.00,Monday
141,31897456.417941675
190,0.0
2,2, 1, 2, 0,11, 0.00,60.00,Monday
141,32740527.034279834
190,0.0
2,2, 1, 2, 0,12, 0.00,60.00,Monday
141,32070247.0920673
190,0.0
2,2, 1, 2, 0,13, 0.00,60.00,Monday
141,31806023.216556758
190,0.0
2,2, 1, 2, 0,14, 0.00,60.00,Monday
141,32664389.31300201
190,0.0
2,2, 1, 2, 0,15, 0.00,60.00,Monday
141,33032591.484719183
190,0.0
2,2, 1, 2, 0,16, 0.00,60.00,Monday
141,33818944.737110734
190,0.0
2,2, 1, 2, 0,17, 0.00,60.00,Monday
141,34578698.60888914
190,0.0
2,2, 1, 2, 0,18, 0.00,60.00,Monday
141,34696713.759507716
190,0.0
2,2, 1, 2, 0,19, 0.00,60.00,Monday
141,35520377.9825845
190,0.0
2,2, 1, 2, 0,20, 0.00,60.00,Monday
141,36267481.75415344
190,0.0
2,2, 1, 2, 0,21, 0.00,60.00,Monday
141,36353648.9327485
190,0.0
2,2, 1, 2, 0,22, 0.00,60.00,Monday
141,36285009.29710789
190,0.0
2,2, 1, 2, 0,23, 0.00,60.00,Monday
141,36268610.88955494
190,0.0
2,2, 1, 2, 0,24, 0.00,60.00,Monday
141,36269074.43341045
190,0.0
2,3, 1, 3, 0, 1, 0.00,60.00,Tuesday
141,36297354.50894014
190,0.0
2,3, 1, 3, 0, 2, 0.00,60.00,Tuesday
141,36254403.43536802
190,0.0
2,3, 1, 3, 0, 3, 0.00,60.00,Tuesday
141,36189004.54318354
190,0.0
2,3, 1, 3, 0, 4, 0.00,60.00,Tuesday
141,36287720.1386902
190,0.0
2,3, 1, 3, 0, 5, 0.00,60.00,Tuesday
141,37253290.93950817
190,0.0
2,3, 1, 3, 0, 6, 0.00,60.00,Tuesday
141,37871568.33251155
190,0.0
2,3, 1, 3, 0, 7, 0.00,60.00,Tuesday
141,38158720.787286505
190,0.0
2,3, 1, 3, 0, 8, 0.00,60.00,Tuesday
141,38053980.158927396
190,0.0
2,3, 1, 3, 0, 9, 0.00,60.00,Tuesday
141,38848804.79941737
190,0.0
2,3, 1, 3, 0,10, 0.00,60.00,Tuesday
141,39226723.38036853
190,0.0
2,3, 1, 3, 0,11, 0.00,60.00,Tuesday
141,39316848.69939776
190,0.0
2,3, 1, 3, 0,12, 0.00,60.00,Tuesday
141,39555717.84632424
190,0.0
2,3, 1, 3, 0,13, 0.00,60.00,Tuesday
141,40794163.58861661
190,0.0
2,3, 1, 3, 0,14, 0.00,60.00,Tuesday
141,41472779.1275399
190,0.0
2,3, 1, 3, 0,15, 0.00,60.00,Tuesday
141,41320138.40846147
190,0.0
2,3, 1, 3, 0,16, 0.00,60.00,Tuesday
141,41183010.19843214
190,0.0
2,3, 1, 3, 0,17, 0.00,60.00,Tuesday
141,41223657.42420281
190,0.0
2,3, 1, 3, 0,18, 0.00,60.00,Tuesday
141,41325174.19916285
190,0.0
2,3, 1, 3, 0,19, 0.00,60.00,Tuesday
141,41125765.50167294
190,0.0
2,3, 1, 3, 0,20, 0.00,60.00,Tuesday
141,40149327.996699445
190,0.0
2,3, 1, 3, 0,21, 0.00,60.00,Tuesday
141,37509782.05489513
190,0.0
2,3, 1, 3, 0,22, 0.00,60.00,Tuesday
141,36093757.7288015
190,0.0
2,3, 1, 3, 0,23, 0.00,60.00,Tuesday
141,37103812.84404409
190,0.0
2,3, 1, 3, 0,24, 0.00,60.00,Tuesday
141,38826928.03556615
190,0.0
2,4, 1, 4, 0, 1, 0.00,60.00,Wednesday
141,39685770.949887864
190,0.0
2,4, 1, 4, 0, 2, 0.00,60.00,Wednesday
141,39550962.69578819
190,0.0
2,4, 1, 4, 0, 3, 0.00,60.00,Wednesday
141,39291278.29321529
190,0.0
2,4, 1, 4, 0, 4, 0.00,60.00,Wednesday
141,39580942.4192024
190,0.0
2,4, 1, 4, 0, 5, 0.00,60.00,Wednesday
141,40723192.51171089
190,0.0
2,4, 1, 4, 0, 6, 0.00,60.00,Wednesday
141,40420003.22888176
190,0.0
2,4, 1, 4, 0, 7, 0.00,60.00,Wednesday
141,40360890.964865744
190,0.0
2,4, 1, 4, 0, 8, 0.00,60.00,Wednesday
141,40816192.2259247
190,0.0
2,4, 1, 4, 0, 9, 0.00,60.00,Wednesday
141,41144195.13628433
190,0.0
2,4, 1, 4, 0,10, 0.00,60.00,Wednesday
141,41408941.33633099
190,0.0
2,4, 1, 4, 0,11, 0.00,60.00,Wednesday
141,39335980.23153626
190,0.0
2,4, 1, 4, 0,12, 0.00,60.00,Wednesday
141,35829136.89319038
190,0.0
2,4, 1, 4, 0,13, 0.00,60.00,Wednesday
141,34886298.349373
190,0.0
2,4, 1, 4, 0,14, 0.00,60.00,Wednesday
141,34759864.87863896
190,0.0
2,4, 1, 4, 0,15, 0.00,60.00,Wednesday
141,34425794.682889126
190,0.0
2,4, 1, 4, 0,16, 0.00,60.00,Wednesday
141,35869019.13230273
190,0.0
2,4, 1, 4, 0,17, 0.00,60.00,Wednesday
141,38451853.79749619
190,0.0
2,4, 1, 4, 0,18, 0.00,60.00,Wednesday
141,40688610.85944535
190,0.0
2,4, 1, 4, 0,19, 0.00,60.00,Wednesday
141,42958922.2502467
190,0.0
2,4, 1, 4, 0,20, 0.00,60.00,Wednesday
141,44142684.32962549
190,0.0
2,4, 1, 4, 0,21, 0.00,60.00,Wednesday
141,44665094.154012136
190,0.0
2,4, 1, 4, 0,22, 0.00,60.00,Wednesday
141,45740917.427887425
190,0.0
2,4, 1, 4, 0,23, 0.00,60.00,Wednesday
141,45224248.03740171
190,0.0
2,4, 1, 4, 0,24, 0.00,60.00,Wednesday
141,44372887.361452304
190,0.0
2,5, 1, 5, 0, 1, 0.00,60.00,Thursday
141,44620807.12952598
190,0.0
2,5, 1, 5, 0, 2, 0.00,60.00,Thursday
141,44017954.73522328
190,0.0
2,5, 1, 5, 0, 3, 0.00,60.00,Thursday
141,43438734.23940758
190,0.0
2,5, 1, 5, 0, 4, 0.00,60.00,Thursday
141,43515374.971949
190,0.0
2,5, 1, 5, 0, 5, 0.00,60.00,Thursday
141,42879953.98756695
190,0.0
2,5, 1, 5, 0, 6, 0.00,60.00,Thursday
141,42611129.95945053
190,0.0
2,5, 1, 5, 0, 7, 0.00,60.00,Thursday
141,43021423.72560409
190,0.0
2,5, 1, 5, 0, 8, 0.00,60.00,Thursday
141,43387960.239249215
190,0.0
2,5, 1, 5, 0, 9, 0.00,60.00,Thursday
141,43526666.86842167
190,0.0
2,5, 1, 5, 0,10, 0.00,60.00,Thursday
141,44215607.28638082
190,0.0
2,5, 1, 5, 0,11, 0.00,60.00,Thursday
141,44046129.33314255
190,0.0
2,5, 1, 5, 0,12, 0.00,60.00,Thursday
141,42551101.32415446
190,0.0
2,5, 1, 5, 0,13, 0.00,60.00,Thursday
141,42032775.33507015
190,0.0
2,5, 1, 5, 0,14, 0.00,60.00,Thursday
141,40962748.24786155
190,0.0
2,5, 1, 5, 0,15, 0.00,60.00,Thursday
141,40115692.19421733
190,0.0
2,5, 1, 5, 0,16, 0.00,60.00,Thursday
141,40825284.69291403
190,0.0
2,5, 1, 5, 0,17, 0.00,60.00,Thursday
141,40658992.33593126
190,0.0
2,5, 1, 5, 0,18, 0.00,60.00,Thursday
141,40201374.9913325
190,0.0
2,5, 1, 5, 0,19, 0.00,60.00,Thursday
141,40469936.54578604
190,0.0
2,5, 1, 5, 0,20, 0.00,60.00,Thursday
141,40425145.07467668
190,0.0
2,5, 1, 5, 0,21, 0.00,60.00,Thursday
141,40273710.48991777
190,0.0
2,5, 1, 5, 0,22, 0.00,60.00,Thursday
141,40312728.123899564
190,0.0
2,5, 1, 5, 0,23, 0.00,60.00,Thursday
141,40547890.5115554
190,0.0
2,5, 1, 5, 0,24, 0.00,60.00,Thursday
141,40803217.36231847
190,0.0
2,6, 1, 6, 0, 1, 0.00,60.00,Friday
141,40974585.9119126
190,0.0
2,6, 1, 6, 0, 2, 0.00,60.00,Friday
141,41138413.98012377
190,0.0
2,6, 1, 6, 0, 3, 0.00,60.00,Friday
141,42146094.630494684
190,0.0
2,6, 1, 6, 0, 4, 0.00,60.00,Friday
141,43121782.32715945
190,0.0
2,6, 1, 6, 0, 5, 0.00,60.00,Friday
141,43633812.57081909
190,0.0
2,6, 1, 6, 0, 6, 0.00,60.00,Friday
141,44255065.40380289
190,0.0
2,6, 1, 6, 0, 7, 0.00,60.00,Friday
141,45169147.848077185
190,0.0
2,6, 1, 6, 0, 8, 0.00,60.00,Friday
141,46032360.3130859
190,0.0
2,6, 1, 6, 0, 9, 0.00,60.00,Friday
141,47070230.82591118
190,0.0
2,6, 1, 6, 0,10, 0.00,60.00,Friday
141,47685610.053408146
190,0.0
2,6, 1, 6, 0,11, 0.00,60.00,Friday
141,46994490.840030536
190,0.0
2,6, 1, 6, 0,12, 0.00,60.00,Friday
141,45914861.095787905
190,0.0
2,6, 1, 6, 0,13, 0.00,60.00,Friday
141,45402605.01483553
190,0.0
2,6, 1, 6, 0,14, 0.00,60.00,Friday
141,45195522.98441859
190,0.0
2,6, 1, 6, 0,15, 0.00,60.00,Friday
141,44905675.51699318
190,0.0
2,6, 1, 6, 0,16, 0.00,60.00,Friday
141,44230827.627601184
190,0.0
2,6, 1, 6, 0,17, 0.00,60.00,Friday
141,43533572.256727144
190,0.0
2,6, 1, 6, 0,18, 0.00,60.00,Friday
141,43202844.682140104
190,0.0
2,6, 1, 6, 0,19, 0.00,60.00,Friday
141,42815911.2032401
190,0.0
2,6, 1, 6, 0,20, 0.00,60.00,Friday
141,41869443.00264566
190,0.0
2,6, 1, 6, 0,21, 0.00,60.00,Friday
141,39496058.81573223
190,0.0
2,6, 1, 6, 0,22, 0.00,60.00,Friday
141,36654649.6873425
190,0.0
2,6, 1, 6, 0,23, 0.00,60.00,Friday
141,35386187.93291283
190,0.0
2,6, 1, 6, 0,24, 0.00,60.00,Friday
141,35669609.183153875
190,0.0
2,7, 1, 7, 0, 1, 0.00,60.00,Saturday
141,37925704.64463773
190,0.0
2,7, 1, 7, 0, 2, 0.00,60.00,Saturday
141,40173995.06975517
190,0.0
2,7, 1, 7, 0, 3, 0.00,60.00,Saturday
141,39855006.0416395
190,0.0
2,7, 1, 7, 0, 4, 0.00,60.00,Saturday
141,40034202.03197479
190,0.0
2,7, 1, 7, 0, 5, 0.00,60.00,Saturday
141,41566741.6991214
190,0.0
2,7, 1, 7, 0, 6, 0.00,60.00,Saturday
141,42763907.354737185
190,0.0
2,7, 1, 7, 0, 7, 0.00,60.00,Saturday
141,43461896.93977932
190,0.0
2,7, 1, 7, 0, 8, 0.00,60.00,Saturday
141,43800739.9541239
190,0.0
2,7, 1, 7, 0, 9, 0.00,60.00,Saturday
141,42931348.280300565
190,0.0
2,7, 1, 7, 0,10, 0.00,60.00,Saturday
141,42151024.64105387
190,0.0
2,7, 1, 7, 0,11, 0.00,60.00,Saturday
141,39880963.55803475
190,0.0
2,7, 1, 7, 0,12, 0.00,60.00,Saturday
141,37595902.482327886
190,0.0
2,7, 1, 7, 0,13, 0.00,60.00,Saturday
141,35941795.79845558
190,0.0
2,7, 1, 7, 0,14, 0.00,60.00,Saturday
141,35122636.463243075
190,0.0
2,7, 1, 7, 0,15, 0.00,60.00,Saturday
141,35520909.28428681
190,0.0
2,7, 1, 7, 0,16, 0.00,60.00,Saturday
141,36329697.0418629
190,0.0
2,7, 1, 7, 0,17, 0.00,60.00,Saturday
141,37014486.041148365
190,0.0
2,7, 1, 7, 0,18, 0.00,60.00,Saturday
141,38167233.34646595
190,0.0
2,7, 1, 7, 0,19, 0.00,60.00,Saturday
141,39241420.59576223
190,0.0
2,7, 1, 7, 0,20, 0.00,60.00,Saturday
141,40269425.277576536
190,0.0
2,7, 1, 7, 0,21, 0.00,60.00,Saturday
141,40999126.95647048
190,0.0
2,7, 1, 7, 0,22, 0.00,60.00,Saturday
141,41032678.63750037
190,0.0
2,7, 1, 7, 0,23, 0.00,60.00,Saturday
141,41154735.16106212
190,0.0
2,7, 1, 7, 0,24, 0.00,60.00,Saturday
141,41074057.944521606
190,0.0
2,8, 1, 8, 0, 1, 0.00,60.00,Sunday
141,40379776.10503354
190,0.0
2,8, 1, 8, 0, 2, 0.00,60.00,Sunday
141,39569249.13221073
190,0.0
2,8, 1, 8, 0, 3, 0.00,60.00,Sunday
141,38833048.76467017
190,0.0
2,8, 1, 8, 0, 4, 0.00,60.00,Sunday
141,37791147.210364506
190,0.0
2,8, 1, 8, 0, 5, 0.00,60.00,Sunday
141,36530769.98946877
190,0.0
2,8, 1, 8, 0, 6, 0.00,60.00,Sunday
141,35582823.43348457
190,0.0
2,8, 1, 8, 0, 7, 0.00,60.00,Sunday
141,34858756.45520386
190,0.0
2,8, 1, 8, 0, 8, 0.00,60.00,Sunday
141,34239076.71052422
190,0.0
2,8, 1, 8, 0, 9, 0.00,60.00,Sunday
141,33594367.54410651
190,0.0
2,8, 1, 8, 0,10, 0.00,60.00,Sunday
141,33385912.032888785
190,0.0
2,8, 1, 8, 0,11, 0.00,60.00,Sunday
141,33227997.13644614
190,0.0
2,8, 1, 8, 0,12, 0.00,60.00,Sunday
141,33358669.26129733
190,0.0
2,8, 1, 8, 0,13, 0.00,60.00,Sunday
141,33243481.52274745
190,0.0
2,8, 1, 8, 0,14, 0.00,60.00,Sunday
141,33398727.947425805
190,0.0
2,8, 1, 8, 0,15, 0.00,60.00,Sunday
141,34789977.84277793
190,0.0
2,8, 1, 8, 0,16, 0.00,60.00,Sunday
141,35793345.19496487
190,0.0
2,8, 1, 8, 0,17, 0.00,60.00,Sunday
141,35846165.02930081
190,0.0
2,8, 1, 8, 0,18, 0.00,60.00,Sunday
141,36289685.69907356
190,0.0
2,8, 1, 8, 0,19, 0.00,60.00,Sunday
141,36048947.75461444
190,0.0
2,8, 1, 8, 0,20, 0.00,60.00,Sunday
141,35208410.263896845
190,0.0
2,8, 1, 8, 0,21, 0.00,60.00,Sunday
141,34602419.751139574
190,0.0
2,8, 1, 8, 0,22, 0.00,60.00,Sunday
141,34769989.29901806
190,0.0
2,8, 1, 8, 0,23, 0.00,60.00,Sunday
141,34926855.97363803
190,0.0
2,8, 1, 8, 0,24, 0.00,60.00,Sunday
141,35420363.96686618
190,0.0
2,9, 1, 9, 0, 1, 0.00,60.00,Monday
141,35512033.43258032
190,0.0
2,9, 1, 9, 0, 2, 0.00,60.00,Monday
141,35565957.49639884
190,0.0
2,9, 1, 9, 0, 3, 0.00,60.00,Monday
141,35441998.82354039
190,0.0
2,9, 1, 9, 0, 4, 0.00,60.00,Monday
141,35134294.3300155
190,0.0
2,9, 1, 9, 0, 5, 0.00,60.00,Monday
141,34447490.33563055
190,0.0
2,9, 1, 9, 0, 6, 0.00,60.00,Monday
141,33753284.638326064
190,0.0
2,9, 1, 9, 0, 7, 0.00,60.00,Monday
141,33253035.635342732
190,0.0
2,9, 1, 9, 0, 8, 0.00,60.00,Monday
141,32983118.915495556
190,0.0
2,9, 1, 9, 0, 9, 0.00,60.00,Monday
141,32240024.829467267
190,0.0
2,9, 1, 9, 0,10, 0.00,60.00,Monday
141,30429730.60161167
190,0.0
2,9, 1, 9, 0,11, 0.00,60.00,Monday
141,28888883.66271121
190,0.0
2,9, 1, 9, 0,12, 0.00,60.00,Monday
141,28039890.00224357
190,0.0
2,9, 1, 9, 0,13, 0.00,60.00,Monday
141,27341597.68482268
190,0.0
2,9, 1, 9, 0,14, 0.00,60.00,Monday
141,26836910.989844285
190,0.0
2,9, 1, 9, 0,15, 0.00,60.00,Monday
141,26671015.32685481
190,0.0
2,9, 1, 9, 0,16, 0.00,60.00,Monday
141,27047999.977326043
190,0.0
2,9, 1, 9, 0,17, 0.00,60.00,Monday
141,28292235.206878822
190,0.0
2,9, 1, 9, 0,18, 0.00,60.00,Monday
141,29466267.605518445
190,0.0
2,9, 1, 9, 0,19, 0.00,60.00,Monday
141,29382167.255080722
190,0.0
2,9, 1, 9, 0,20, 0.00,60.00,Monday
141,27764528.51464449
190,0.0
2,9, 1, 9, 0,21, 0.00,60.00,Monday
141,26128767.77224913
190,0.0
2,9, 1, 9, 0,22, 0.00,60.00,Monday
141,25127779.215934716
190,0.0
2,9, 1, 9, 0,23, 0.00,60.00,Monday
141,24945301.379756987
190,0.0
2,9, 1, 9, 0,24, 0.00,60.00,Monday
141,25053745.78657384
190,0.0
2,10, 1,10, 0, 1, 0.00,60.00,Tuesday
141,25511250.674100786
190,0.0
2,10, 1,10, 0, 2, 0.00,60.00,Tuesday
141,25826885.237327896
190,0.0
2,10, 1,10, 0, 3, 0.00,60.00,Tuesday
141,25890339.99747796
190,0.0
2,10, 1,10, 0, 4, 0.00,60.00,Tuesday
141,26405332.493955277
190,0.0
2,10, 1,10, 0, 5, 0.00,60.00,Tuesday
141,26603617.980038762
190,0.0
2,10, 1,10, 0, 6, 0.00,60.00,Tuesday
141,26678696.90819811
190,0.0
2,10, 1,10, 0, 7, 0.00,60.00,Tuesday
141,26766196.3573892
190,0.0
2,10, 1,10, 0, 8, 0.00,60.00,Tuesday
141,26610966.721737847
190,0.0
2,10, 1,10, 0, 9, 0.00,60.00,Tuesday
141,26379637.25131238
190,0.0
2,10, 1,10, 0,10, 0.00,60.00,Tuesday
141,26056294.69907213
190,0.0
2,10, 1,10, 0,11, 0.00,60.00,Tuesday
141,25572502.3858231
190,0.0
2,10, 1,10, 0,12, 0.00,60.00,Tuesday
141,25015020.453310043
190,0.0
2,10, 1,10, 0,13, 0.00,60.00,Tuesday
141,24943259.06105019
190,0.0
2,10, 1,10, 0,14, 0.00,60.00,Tuesday
141,27088218.306434937
190,0.0
2,10, 1,10, 0,15, 0.00,60.00,Tuesday
141,28825784.47163782
190,0.0
2,10, 1,10, 0,16, 0.00,60.00,Tuesday
141,29903064.92442549
190,0.0
2,10, 1,10, 0,17, 0.00,60.00,Tuesday
141,31009823.23664874
190,0.0
2,10, 1,10, 0,18, 0.00,60.00,Tuesday
141,32437223.610368796
190,0.0
2,10, 1,10, 0,19, 0.00,60.00,Tuesday
141,33196874.778781813
190,0.0
2,10, 1,10, 0,20, 0.00,60.00,Tuesday
141,33766572.916848
190,0.0
2,10, 1,10, 0,21, 0.00,60.00,Tuesday
141,34660647.34229418
190,0.0
2,10, 1,10, 0,22, 0.00,60.00,Tuesday
141,35170353.54894409
190,0.0
2,10, 1,10, 0,23, 0.00,60.00,Tuesday
141,34853677.858546056
190,0.0
2,10, 1,10, 0,24, 0.00,60.00,Tuesday
141,35432581.79066183
190,0.0
2,11, 1,11, 0, 1, 0.00,60.00,Wednesday
141,35521593.391308516
190,0.0
2,11, 1,11, 0, 2, 0.00,60.00,Wednesday
141,35607111.54618544
190,0.0
2,11, 1,11, 0, 3, 0.00,60.00,Wednesday
141,35919737.473737195
190,0.0
2,11, 1,11, 0, 4, 0.00,60.00,Wednesday
141,35464135.73715694
190,0.0
2,11, 1,11, 0, 5, 0.00,60.00,Wednesday
141,35134614.830148324
190,0.0
2,11, 1,11, 0, 6, 0.00,60.00,Wednesday
141,35004260.175296456
190,0.0
2,11, 1,11, 0, 7, 0.00,60.00,Wednesday
141,35118557.83364398
190,0.0
2,11, 1,11, 0, 8, 0.00,60.00,Wednesday
141,35259711.86311696
190,0.0
2,11, 1,11, 0, 9, 0.00,60.00,Wednesday
141,35167995.50650197
190,0.0
2,11, 1,11, 0,10, 0.00,60.00,Wednesday
141,34916748.275478825
190,0.0
2,11, 1,11, 0,11, 0.00,60.00,Wednesday
141,34491577.49207242
190,0.0
2,11, 1,11, 0,12, 0.00,60.00,Wednesday
141,33793338.88801267
190,0.0
2,11, 1,11, 0,13, 0.00,60.00,Wednesday
141,33257199.885768875
190,0.0
2,11, 1,11, 0,14, 0.00,60.00,Wednesday
141,33035762.383462332
190,0.0
2,11, 1,11, 0,15, 0.00,60.00,Wednesday
141,32985992.171340298
190,0.0
2,11, 1,11, 0,16, 0.00,60.00,Wednesday
141,33015539.211066954
190,0.0
2,11, 1,11, 0,17, 0.00,60.00,Wednesday
141,32643652.095198587
190,0.0
2,11, 1,11, 0,18, 0.00,60.00,Wednesday
141,32286826.388329394
190,0.0
2,11, 1,11, 0,19, 0.00,60.00,Wednesday
141,32041173.599600285
190,0.0
2,11, 1,11, 0,20, 0.00,60.00,Wednesday
141,32019493.60405268
190,0.0
2,11, 1,11, 0,21, 0.00,60.00,Wednesday
141,32012385.56186376
190,0.0
2,11, 1,11, 0,22, 0.00,60.00,Wednesday
141,31250507.1626651
190,0.0
2,11, 1,11, 0,23, 0.00,60.00,Wednesday
141,30662069.67432732
190,0.0
2,11, 1,11, 0,24, 0.00,60.00,Wednesday
141,30708323.900750905
190,0.0
2,12, 1,12, 0, 1, 0.00,60.00,Thursday
141,30992292.192096177
190,0.0
2,12, 1,12, 0, 2, 0.00,60.00,Thursday
141,31034207.734450176
190,0.0
2,12, 1,12, 0, 3, 0.00,60.00,Thursday
141,30859817.20499316
190,0.0
2,12, 1,12, 0, 4, 0.00,60.00,Thursday
141,30891373.297951464
190,0.0
2,12, 1,12, 0, 5, 0.00,60.00,Thursday
141,31164775.93126449
190,0.0
2,12, 1,12, 0, 6, 0.00,60.00,Thursday
141,31801833.056551926
190,0.0
2,12, 1,12, 0, 7, 0.00,60.00,Thursday
141,32149167.923391048
190,0.0
2,12, 1,12, 0, 8, 0.00,60.00,Thursday
141,32239012.452663887
190,0.0
2,12, 1,12, 0, 9, 0.00,60.00,Thursday
141,31801034.053388096
190,0.0
2,12, 1,12, 0,10, 0.00,60.00,Thursday
141,30841084.63629195
190,0.0
2,12, 1,12, 0,11, 0.00,60.00,Thursday
141,30110483.91726829
190,0.0
2,12, 1,12, 0,12, 0.00,60.00,Thursday
141,29694119.788255382
190,0.0
2,12, 1,12, 0,13, 0.00,60.00,Thursday
141,29146771.83522655
190,0.0
2,12, 1,12, 0,14, 0.00,60.00,Thursday
141,28555371.36144814
190,0.0
2,12, 1,12, 0,15, 0.00,60.00,Thursday
141,28535455.847853713
190,0.0
2,12, 1,12, 0,16, 0.00,60.00,Thursday
141,28774029.68956379
190,0.0
2,12, 1,12, 0,17, 0.00,60.00,Thursday
141,29936356.024843864
190,0.0
2,12, 1,12, 0,18, 0.00,60.00,Thursday
141,30615470.731683824
190,0.0
2,12, 1,12, 0,19, 0.00,60.00,Thursday
141,30339319.512038544
190,0.0
2,12, 1,12, 0,20, 0.00,60.00,Thursday
141,29693709.941635992
190,0.0
2,12, 1,12, 0,21, 0.00,60.00,Thursday
141,29429038.17531015
190,0.0
2,12, 1,12, 0,22, 0.00,60.00,Thursday
141,28991556.964946043
190,0.0
2,12, 1,12, 0,23, 0.00,60.00,Thursday
141,28826476.091772012
190,0.0
2,12, 1,12, 0,24, 0.00,60.00,Thursday
141,28856848.358057287
190,0.0
2,13, 1,13, 0, 1, 0.00,60.00,Friday
141,28571949.668635376
190,0.0
2,13, 1,13, 0, 2, 0.00,60.00,Friday
141,28311543.49928962
190,0.0
2,13, 1,13, 0, 3, 0.00,60.00,Friday
141,27923107.899101503
190,0.0
2,13, 1,13, 0, 4, 0.00,60.00,Friday
141,27688288.392850064
190,0.0
2,13, 1,13, 0, 5, 0.00,60.00,Friday
141,27667609.66879851
190,0.0
2,13, 1,13, 0, 6, 0.00,60.00,Friday
141,27746927.815915525
190,0.0
2,13, 1,13, 0, 7, 0.00,60.00,Friday
141,27992062.176250156
190,0.0
2,13, 1,13, 0, 8, 0.00,60.00,Friday
141,28009806.76930014
190,0.0
2,13, 1,13, 0, 9, 0.00,60.00,Friday
141,27721715.278319042
190,0.0
2,13, 1,13, 0,10, 0.00,60.00,Friday
141,28447666.635943435
190,0.0
2,13, 1,13, 0,11, 0.00,60.00,Friday
141,29259799.028463677
190,0.0
2,13, 1,13, 0,12, 0.00,60.00,Friday
141,29312381.775084514
190,0.0
2,13, 1,13, 0,13, 0.00,60.00,Friday
141,29408144.82081596
190,0.0
2,13, 1,13, 0,14, 0.00,60.00,Friday
141,29904688.306816608
190,0.0
2,13, 1,13, 0,15, 0.00,60.00,Friday
141,30169968.307918776
190,0.0
2,13, 1,13, 0,16, 0.00,60.00,Friday
141,30058122.794050172
190,0.0
2,13, 1,13, 0,17, 0.00,60.00,Friday
141,29872421.1074111
190,0.0
2,13, 1,13, 0,18, 0.00,60.00,Friday
141,29776988.208941348
190,0.0
2,13, 1,13, 0,19, 0.00,60.00,Friday
141,30241687.372224897
190,0.0
2,13, 1,13, 0,20, 0.00,60.00,Friday
141,31077557.15914093
190,0.0
2,13, 1,13, 0,21, 0.00,60.00,Friday
141,31824072.815910652
190,0.0
2,13, 1,13, 0,22, 0.00,60.00,Friday
141,32293148.13661214
190,0.0
2,13, 1,13, 0,23, 0.00,60.00,Friday
141,32110292.197867274
190,0.0
2,13, 1,13, 0,24, 0.00,60.00,Friday
141,34075758.50420246
190,0.0
2,14, 1,14, 0, 1, 0.00,60.00,Saturday
141,35426492.48373305
190,0.0
2,14, 1,14, 0, 2, 0.00,60.00,Saturday
141,34854753.70062255
190,0.0
2,14, 1,14, 0, 3, 0.00,60.00,Saturday
141,34964381.01980136
190,0.0
2,14, 1,14, 0, 4, 0.00,60.00,Saturday
141,34746608.94960746
190,0.0
2,14, 1,14, 0, 5, 0.00,60.00,Saturday
141,34681624.36140886
190,0.0
2,14, 1,14, 0, 6, 0.00,60.00,Saturday
141,36113599.19579837
190,0.0
2,14, 1,14, 0, 7, 0.00,60.00,Saturday
141,37185785.414209895
190,0.0
2,14, 1,14, 0, 8, 0.00,60.00,Saturday
141,36820652.76969807
190,0.0
2,14, 1,14, 0, 9, 0.00,60.00,Saturday
141,37380483.98627421
190,0.0
2,14, 1,14, 0,10, 0.00,60.00,Saturday
141,38139635.57222767
190,0.0
2,14, 1,14, 0,11, 0.00,60.00,Saturday
141,37803507.96853938
190,0.0
2,14, 1,14, 0,12, 0.00,60.00,Saturday
141,37310351.78631789
190,0.0
2,14, 1,14, 0,13, 0.00,60.00,Saturday
141,36466267.49834685
190,0.0
2,14, 1,14, 0,14, 0.00,60.00,Saturday
141,34771784.82510678
190,0.0
2,14, 1,14, 0,15, 0.00,60.00,Saturday
141,34555155.28155814
190,0.0
2,14, 1,14, 0,16, 0.00,60.00,Saturday
141,34935745.6344523
190,0.0
2,14, 1,14, 0,17, 0.00,60.00,Saturday
141,35616214.48278299
190,0.0
2,14, 1,14, 0,18, 0.00,60.00,Saturday
141,36875029.53428858
190,0.0
2,14, 1,14, 0,19, 0.00,60.00,Saturday
141,36903658.900071435
190,0.0
2,14, 1,14, 0,20, 0.00,60.00,Saturday
141,37071930.85079042
190,0.0
2,14, 1,14, 0,21, 0.00,60.00,Saturday
141,36835130.568329714
190,0.0
2,14, 1,14, 0,22, 0.00,60.00,Saturday
141,36398489.58684636
190,0.0
2,14, 1,14, 0,23, 0.00,60.00,Saturday
141,36083194.06899481
190,0.0
2,14, 1,14, 0,24, 0.00,60.00,Saturday
141,35949674.14214191
190,0.0
2,15, 1,15, 0, 1, 0.00,60.00,Sunday
141,35189547.146273606
190,0.0
2,15, 1,15, 0, 2, 0.00,60.00,Sunday
141,33390476.366424955
190,0.0
2,15, 1,15, 0, 3, 0.00,60.00,Sunday
141,32519201.78427683
190,0.0
2,15, 1,15, 0, 4, 0.00,60.00,Sunday
141,31911381.848124266
190,0.0
2,15, 1,15, 0, 5, 0.00,60.00,Sunday
141,30788241.764939748
190,0.0
2,15, 1,15, 0, 6, 0.00,60.00,Sunday
141,29607546.420410167
190,0.0
2,15, 1,15, 0, 7, 0.00,60.00,Sunday
141,28444866.46848819
190,0.0
2,15, 1,15, 0, 8, 0.00,60.00,Sunday
141,27685305.66941229
190,0.0
2,15, 1,15, 0, 9, 0.00,60.00,Sunday
141,27116981.765371025
190,0.0
2,15, 1,15, 0,10, 0.00,60.00,Sunday
141,27061775.625099573
190,0.0
2,15, 1,15, 0,11, 0.00,60.00,Sunday
141,27722724.80316571
190,0.0
2,15, 1,15, 0,12, 0.00,60.00,Sunday
141,29379657.12837182
190,0.0
2,15, 1,15, 0,13, 0.00,60.00,Sunday
141,30612071.865669638
190,0.0
2,15, 1,15, 0,14, 0.00,60.00,Sunday
141,31139048.35864567
190,0.0
2,15, 1,15, 0,15, 0.00,60.00,Sunday
141,31364366.336140346
190,0.0
2,15, 1,15, 0,16, 0.00,60.00,Sunday
141,30991864.228269145
190,0.0
2,15, 1,15, 0,17, 0.00,60.00,Sunday
141,30741069.629142784
190,0.0
2,15, 1,15, 0,18, 0.00,60.00,Sunday
141,30863849.628665764
190,0.0
2,15, 1,15, 0,19, 0.00,60.00,Sunday
141,31152169.255632255
190,0.0
2,15, 1,15, 0,20, 0.00,60.00,Sunday
141,31516003.27623501
190,0.0
2,15, 1,15, 0,21, 0.00,60.00,Sunday
141,32272474.77065216
190,0.0
2,15, 1,15, 0,22, 0.00,60.00,Sunday
141,32612757.202155743
190,0.0
2,15, 1,15, 0,23, 0.00,60.00,Sunday
141,32654733.519156583
190,0.0
2,15, 1,15, 0,24, 0.00,60.00,Sunday
141,32841659.895811938
190,0.0
2,16, 1,16, 0, 1, 0.00,60.00,Monday
141,33523143.35821968
190,0.0
2,16, 1,16, 0, 2, 0.00,60.00,Monday
141,34159342.940892324
190,0.0
2,16, 1,16, 0, 3, 0.00,60.00,Monday
141,34512329.39691949
190,0.0
2,16, 1,16, 0, 4, 0.00,60.00,Monday
141,34766946.76073161
190,0.0
2,16, 1,16, 0, 5, 0.00,60.00,Monday
141,35152730.23341763
190,0.0
2,16, 1,16, 0, 6, 0.00,60.00,Monday
141,35482886.720222786
190,0.0
2,16, 1,16, 0, 7, 0.00,60.00,Monday
141,36171749.74217886
190,0.0
2,16, 1,16, 0, 8, 0.00,60.00,Monday
141,36818603.291012116
190,0.0
2,16, 1,16, 0, 9, 0.00,60.00,Monday
141,37088854.87381935
190,0.0
2,16, 1,16, 0,10, 0.00,60.00,Monday
141,37083950.331294164
190,0.0
2,16, 1,16, 0,11, 0.00,60.00,Monday
141,35607098.95964315
190,0.0
2,16, 1,16, 0,12, 0.00,60.00,Monday
141,34303612.03605864
190,0.0
2,16, 1,16, 0,13, 0.00,60.00,Monday
141,33293212.27633882
190,0.0
2,16, 1,16, 0,14, 0.00,60.00,Monday
141,32628459.618618198
190,0.0
2,16, 1,16, 0,15, 0.00,60.00,Monday
141,32567523.43530194
190,0.0
2,16, 1,16, 0,16, 0.00,60.00,Monday
141,32878582.974877212
190,0.0
2,16, 1,16, 0,17, 0.00,60.00,Monday
141,33617585.845039606
190,0.0
2,16, 1,16, 0,18, 0.00,60.00,Monday
141,35015732.76840033
190,0.0
2,16, 1,16, 0,19, 0.00,60.00,Monday
141,36481937.15311734
190,0.0
2,16, 1,16, 0,20, 0.00,60.00,Monday
141,37224658.66121225
190,0.0
2,16, 1,16, 0,21, 0.00,60.00,Monday
141,37809015.91561815
190,0.0
2,16, 1,16, 0,22, 0.00,60.00,Monday
141,38337383.83948013
190,0.0
2,16, 1,16, 0,23, 0.00,60.00,Monday
141,39135875.7298455
190,0.0
2,16, 1,16, 0,24, 0.00,60.00,Monday
141,39305957.40548628
190,0.0
2,17, 1,17, 0, 1, 0.00,60.00,Tuesday
141,39535857.29533751
190,0.0
2,17, 1,17, 0, 2, 0.00,60.00,Tuesday
141,40489879.484455675
190,0.0
2,17, 1,17, 0, 3, 0.00,60.00,Tuesday
141,41277381.98222597
190,0.0
2,17, 1,17, 0, 4, 0.00,60.00,Tuesday
141,41942021.443693325
190,0.0
2,17, 1,17, 0, 5, 0.00,60.00,Tuesday
141,42684696.808748156
190,0.0
2,17, 1,17, 0, 6, 0.00,60.00,Tuesday
141,43430502.49844878
190,0.0
2,17, 1,17, 0, 7, 0.00,60.00,Tuesday
141,43861933.645376965
190,0.0
2,17, 1,17, 0, 8, 0.00,60.00,Tuesday
141,44075154.14246202
190,0.0
2,17, 1,17, 0, 9, 0.00,60.00,Tuesday
141,44088729.27636665
190,0.0
2,17, 1,17, 0,10, 0.00,60.00,Tuesday
141,42374250.06615869
190,0.0
2,17, 1,17, 0,11, 0.00,60.00,Tuesday
141,39864517.906300716
190,0.0
2,17, 1,17, 0,12, 0.00,60.00,Tuesday
141,37702117.11749238
190,0.0
2,17, 1,17, 0,13, 0.00,60.00,Tuesday
141,36445272.01742039
190,0.0
2,17, 1,17, 0,14, 0.00,60.00,Tuesday
141,36184007.3845738
190,0.0
2,17, 1,17, 0,15, 0.00,60.00,Tuesday
141,36620682.5782798
190,0.0
2,17, 1,17, 0,16, 0.00,60.00,Tuesday
141,37873792.56479865
190,0.0
2,17, 1,17, 0,17, 0.00,60.00,Tuesday
141,38888117.48601722
190,0.0
2,17, 1,17, 0,18, 0.00,60.00,Tuesday
141,39048244.474558055
190,0.0
2,17, 1,17, 0,19, 0.00,60.00,Tuesday
141,39014474.86535009
190,0.0
2,17, 1,17, 0,20, 0.00,60.00,Tuesday
141,39273560.55167138
190,0.0
2,17, 1,17, 0,21, 0.00,60.00,Tuesday
141,39675988.49097174
190,0.0
2,17, 1,17, 0,22, 0.00,60.00,Tuesday
141,39757866.00522793
190,0.0
2,17, 1,17, 0,23, 0.00,60.00,Tuesday
141,39818187.25044659
190,0.0
2,17, 1,17, 0,24, 0.00,60.00,Tuesday
141,40335352.17766926
190,0.0
2,18, 1,18, 0, 1, 0.00,60.00,Wednesday
141,40655209.1627871
190,0.0
2,18, 1,18, 0, 2, 0.00,60.00,Wednesday
141,40876839.86963091
190,0.0
2,18, 1,18, 0, 3, 0.00,60.00,Wednesday
141,40929176.36593054
190,0.0
2,18, 1,18, 0, 4, 0.00,60.00,Wednesday
141,40861030.69274807
190,0.0
2,18, 1,18, 0, 5, 0.00,60.00,Wednesday
141,40867981.99471087
190,0.0
2,18, 1,18, 0, 6, 0.00,60.00,Wednesday
141,40976594.56195133
190,0.0
2,18, 1,18, 0, 7, 0.00,60.00,Wednesday
141,41782588.66430113
190,0.0
2,18, 1,18, 0, 8, 0.00,60.00,Wednesday
141,42001847.3409416
190,0.0
2,18, 1,18, 0, 9, 0.00,60.00,Wednesday
141,42106950.392434075
190,0.0
2,18, 1,18, 0,10, 0.00,60.00,Wednesday
141,42028852.65399587
190,0.0
2,18, 1,18, 0,11, 0.00,60.00,Wednesday
141,41195359.64816903
190,0.0
2,18, 1,18, 0,12, 0.00,60.00,Wednesday
141,40556200.96214852
190,0.0
2,18, 1,18, 0,13, 0.00,60.00,Wednesday
141,40830038.83413918
190,0.0
2,18, 1,18, 0,14, 0.00,60.00,Wednesday
141,41442503.38654461
190,0.0
2,18, 1,18, 0,15, 0.00,60.00,Wednesday
141,41777347.65297953
190,0.0
2,18, 1,18, 0,16, 0.00,60.00,Wednesday
141,42492920.53091504
190,0.0
2,18, 1,18, 0,17, 0.00,60.00,Wednesday
141,42857133.50734967
190,0.0
2,18, 1,18, 0,18, 0.00,60.00,Wednesday
141,42594982.64710055
190,0.0
2,18, 1,18, 0,19, 0.00,60.00,Wednesday
141,42470361.57221579
190,0.0
2,18, 1,18, 0,20, 0.00,60.00,Wednesday
141,42599798.04263119
190,0.0
2,18, 1,18, 0,21, 0.00,60.00,Wednesday
141,42691927.525916494
190,0.0
2,18, 1,18, 0,22, 0.00,60.00,Wednesday
141,42922284.81935792
190,0.0
2,18, 1,18, 0,23, 0.00,60.00,Wednesday
141,43089216.11031577
190,0.0
2,18, 1,18, 0,24, 0.00,60.00,Wednesday
141,43312475.66360356
190,0.0
2,19, 1,19, 0, 1, 0.00,60.00,Thursday
141,43055100.83481828
190,0.0
2,19, 1,19, 0, 2, 0.00,60.00,Thursday
141,43184775.637527525
190,0.0