Program Version,EnergyPlus, Version 24.2.0-94a887817b, YMD=2025.04.24 13:19
1,5,Environment Title[],Latitude[deg],Longitude[deg],Time Zone[],Elevation[m]
2,8,Day of Simulation[],Month[],Day of Month[],DST Indicator[1=yes 0=no],Hour[],StartMinute[],EndMinute[],DayType
3,5,Cumulative Day of Simulation[],Month[],Day of Month[],DST Indicator[1=yes 0=no],DayType  ! When Daily Report Variables Requested
4,2,Cumulative Days of Simulation[],Month[]  ! When Monthly Report Variables Requested
5,1,Cumulative Days of Simulation[] ! When Run Period Report Variables Requested
6,1,Calendar Year of Simulation[] ! When Annual Report Variables Requested
141,1,ZONE_0599100000059027 IDEAL LOADS AIR SYSTEM,Zone Ideal Loads Supply Air Total Heating Energy [J] !Hourly
190,1,ZONE_0599100000059027 IDEAL LOADS AIR SYSTEM,Zone Ideal Loads Supply Air Total Cooling Energy [J] !Hourly
End of Data Dictionary
1,RUN PERIOD 1,  51.96,   4.45,   1.00,  -4.50
2,1, 1, 1, 0, 1, 0.00,60.00,Sunday
141,49633947.43829974
190,0.0
2,1, 1, 1, 0, 2, 0.00,60.00,Sunday
141,51510851.93157652
190,0.0
2,1, 1, 1, 0, 3, 0.00,60.00,Sunday
141,51516127.8061222
190,0.0
2,1, 1, 1, 0, 4, 0.00,60.00,Sunday
141,52914892.13950827
190,0.0
2,1, 1, 1, 0, 5, 0.00,60.00,Sunday
141,53894533.86648543
190,0.0
2,1, 1, 1, 0, 6, 0.00,60.00,Sunday
141,54063167.246670514
190,0.0
2,1, 1, 1, 0, 7, 0.00,60.00,Sunday
141,54308806.496752456
190,0.0
2,1, 1, 1, 0, 8, 0.00,60.00,Sunday
141,54275833.395017
190,0.0
2,1, 1, 1, 0, 9, 0.00,60.00,Sunday
141,54267043.33878923
190,0.0
2,1, 1, 1, 0,10, 0.00,60.00,Sunday
141,53931990.254693486
190,0.0
2,1, 1, 1, 0,11, 0.00,60.00,Sunday
141,52900326.185114354
190,0.0
2,1, 1, 1, 0,12, 0.00,60.00,Sunday
141,51144645.92417459
190,0.0
2,1, 1, 1, 0,13, 0.00,60.00,Sunday
141,50275485.500397846
190,0.0
2,1, 1, 1, 0,14, 0.00,60.00,Sunday
141,48979816.13771702
190,0.0
2,1, 1, 1, 0,15, 0.00,60.00,Sunday
141,47970244.64976855
190,0.0
2,1, 1, 1, 0,16, 0.00,60.00,Sunday
141,48598763.104365714
190,0.0
2,1, 1, 1, 0,17, 0.00,60.00,Sunday
141,49414675.998379335
190,0.0
2,1, 1, 1, 0,18, 0.00,60.00,Sunday
141,49519396.46151358
190,0.0
2,1, 1, 1, 0,19, 0.00,60.00,Sunday
141,49633729.54427869
190,0.0
2,1, 1, 1, 0,20, 0.00,60.00,Sunday
141,49455013.39831872
190,0.0
2,1, 1, 1, 0,21, 0.00,60.00,Sunday
141,49211889.283845395
190,0.0
2,1, 1, 1, 0,22, 0.00,60.00,Sunday
141,49304364.21703779
190,0.0
2,1, 1, 1, 0,23, 0.00,60.00,Sunday
141,48022849.38124599
190,0.0
2,1, 1, 1, 0,24, 0.00,60.00,Sunday
141,47091040.35619286
190,0.0
2,2, 1, 2, 0, 1, 0.00,60.00,Monday
141,47294443.62363054
190,0.0
2,2, 1, 2, 0, 2, 0.00,60.00,Monday
141,46028003.32087804
190,0.0
2,2, 1, 2, 0, 3, 0.00,60.00,Monday
141,45056532.79090719
190,0.0
2,2, 1, 2, 0, 4, 0.00,60.00,Monday
141,44061399.69224596
190,0.0
2,2, 1, 2, 0, 5, 0.00,60.00,Monday
141,41851442.34394973
190,0.0
2,2, 1, 2, 0, 6, 0.00,60.00,Monday
141,40781300.63716828
190,0.0
2,2, 1, 2, 0, 7, 0.00,60.00,Monday
141,39091056.828485966
190,0.0
2,2, 1, 2, 0, 8, 0.00,60.00,Monday
141,37017341.92656814
190,0.0
2,2, 1, 2, 0, 9, 0.00,60.00,Monday
141,37559081.51685027
190,0.0
2,2, 1, 2, 0,10, 0.00,60.00,Monday
141,38961340.306934364
190,0.0
2,2, 1, 2, 0,11, 0.00,60.00,Monday
141,39866315.876939826
190,0.0
2,2, 1, 2, 0,12, 0.00,60.00,Monday
141,38891686.68068691
190,0.0
2,2, 1, 2, 0,13, 0.00,60.00,Monday
141,38456775.85433776
190,0.0
2,2, 1, 2, 0,14, 0.00,60.00,Monday
141,39472223.34711855
190,0.0
2,2, 1, 2, 0,15, 0.00,60.00,Monday
141,39929138.64261798
190,0.0
2,2, 1, 2, 0,16, 0.00,60.00,Monday
141,40939945.36766312
190,0.0
2,2, 1, 2, 0,17, 0.00,60.00,Monday
141,41948180.06943575
190,0.0
2,2, 1, 2, 0,18, 0.00,60.00,Monday
141,42187744.501438245
190,0.0
2,2, 1, 2, 0,19, 0.00,60.00,Monday
141,43325310.44680912
190,0.0
2,2, 1, 2, 0,20, 0.00,60.00,Monday
141,44386918.297908396
190,0.0
2,2, 1, 2, 0,21, 0.00,60.00,Monday
141,44643211.91577764
190,0.0
2,2, 1, 2, 0,22, 0.00,60.00,Monday
141,44720047.09808225
190,0.0
2,2, 1, 2, 0,23, 0.00,60.00,Monday
141,44872848.31066522
190,0.0
2,2, 1, 2, 0,24, 0.00,60.00,Monday
141,45049374.1043452
190,0.0
2,3, 1, 3, 0, 1, 0.00,60.00,Tuesday
141,45254098.19623159
190,0.0
2,3, 1, 3, 0, 2, 0.00,60.00,Tuesday
141,45361818.17291621
190,0.0
2,3, 1, 3, 0, 3, 0.00,60.00,Tuesday
141,45426885.347569175
190,0.0
2,3, 1, 3, 0, 4, 0.00,60.00,Tuesday
141,45666602.03389194
190,0.0
2,3, 1, 3, 0, 5, 0.00,60.00,Tuesday
141,46943963.88014395
190,0.0
2,3, 1, 3, 0, 6, 0.00,60.00,Tuesday
141,47755585.01592222
190,0.0
2,3, 1, 3, 0, 7, 0.00,60.00,Tuesday
141,48129611.81036711
190,0.0
2,3, 1, 3, 0, 8, 0.00,60.00,Tuesday
141,47997617.84634264
190,0.0
2,3, 1, 3, 0, 9, 0.00,60.00,Tuesday
141,48970131.154874526
190,0.0
2,3, 1, 3, 0,10, 0.00,60.00,Tuesday
141,49418890.1408982
190,0.0
2,3, 1, 3, 0,11, 0.00,60.00,Tuesday
141,49506528.85977884
190,0.0
2,3, 1, 3, 0,12, 0.00,60.00,Tuesday
141,49779292.903632686
190,0.0
2,3, 1, 3, 0,13, 0.00,60.00,Tuesday
141,51306893.81277302
190,0.0
2,3, 1, 3, 0,14, 0.00,60.00,Tuesday
141,52157650.02209623
190,0.0
2,3, 1, 3, 0,15, 0.00,60.00,Tuesday
141,51977819.360184744
190,0.0
2,3, 1, 3, 0,16, 0.00,60.00,Tuesday
141,51806109.23021417
190,0.0
2,3, 1, 3, 0,17, 0.00,60.00,Tuesday
141,51842055.890747346
190,0.0
2,3, 1, 3, 0,18, 0.00,60.00,Tuesday
141,51941374.84010637
190,0.0
2,3, 1, 3, 0,19, 0.00,60.00,Tuesday
141,51660634.00267586
190,0.0
2,3, 1, 3, 0,20, 0.00,60.00,Tuesday
141,50414793.8725298
190,0.0
2,3, 1, 3, 0,21, 0.00,60.00,Tuesday
141,47120421.878209524
190,0.0
2,3, 1, 3, 0,22, 0.00,60.00,Tuesday
141,45379404.104631804
190,0.0
2,3, 1, 3, 0,23, 0.00,60.00,Tuesday
141,46680387.21088289
190,0.0
2,3, 1, 3, 0,24, 0.00,60.00,Tuesday
141,48871798.35205027
190,0.0
2,4, 1, 4, 0, 1, 0.00,60.00,Wednesday
141,49985131.05349444
190,0.0
2,4, 1, 4, 0, 2, 0.00,60.00,Wednesday
141,49875713.386870526
190,0.0
2,4, 1, 4, 0, 3, 0.00,60.00,Wednesday
141,49635066.51085552
190,0.0
2,4, 1, 4, 0, 4, 0.00,60.00,Wednesday
141,50085710.46397376
190,0.0
2,4, 1, 4, 0, 5, 0.00,60.00,Wednesday
141,51584647.83834901
190,0.0
2,4, 1, 4, 0, 6, 0.00,60.00,Wednesday
141,51272415.50261536
190,0.0
2,4, 1, 4, 0, 7, 0.00,60.00,Wednesday
141,51242614.48814097
190,0.0
2,4, 1, 4, 0, 8, 0.00,60.00,Wednesday
141,51833425.641429484
190,0.0
2,4, 1, 4, 0, 9, 0.00,60.00,Wednesday
141,52255495.5946007
190,0.0
2,4, 1, 4, 0,10, 0.00,60.00,Wednesday
141,52593019.962868705
190,0.0
2,4, 1, 4, 0,11, 0.00,60.00,Wednesday
141,50040431.46035037
190,0.0
2,4, 1, 4, 0,12, 0.00,60.00,Wednesday
141,45735411.08351808
190,0.0
2,4, 1, 4, 0,13, 0.00,60.00,Wednesday
141,44626349.040630236
190,0.0
2,4, 1, 4, 0,14, 0.00,60.00,Wednesday
141,44513511.43852028
190,0.0
2,4, 1, 4, 0,15, 0.00,60.00,Wednesday
141,44103470.199617
190,0.0
2,4, 1, 4, 0,16, 0.00,60.00,Wednesday
141,45860986.86422706
190,0.0
2,4, 1, 4, 0,17, 0.00,60.00,Wednesday
141,49007974.178514294
190,0.0
2,4, 1, 4, 0,18, 0.00,60.00,Wednesday
141,51718252.084783
190,0.0
2,4, 1, 4, 0,19, 0.00,60.00,Wednesday
141,54482707.098409116
190,0.0
2,4, 1, 4, 0,20, 0.00,60.00,Wednesday
141,55933000.13041912
190,0.0
2,4, 1, 4, 0,21, 0.00,60.00,Wednesday
141,56612648.3087434
190,0.0
2,4, 1, 4, 0,22, 0.00,60.00,Wednesday
141,58030769.82405676
190,0.0
2,4, 1, 4, 0,23, 0.00,60.00,Wednesday
141,57521028.285636835
190,0.0
2,4, 1, 4, 0,24, 0.00,60.00,Wednesday
141,56631778.54472721
190,0.0
2,5, 1, 5, 0, 1, 0.00,60.00,Thursday
141,57125413.9740655
190,0.0
2,5, 1, 5, 0, 2, 0.00,60.00,Thursday
141,56562710.665998966
190,0.0
2,5, 1, 5, 0, 3, 0.00,60.00,Thursday
141,56010154.396295756
190,0.0
2,5, 1, 5, 0, 4, 0.00,60.00,Thursday
141,56238530.298986815
190,0.0
2,5, 1, 5, 0, 5, 0.00,60.00,Thursday
141,55545819.91658634
190,0.0
2,5, 1, 5, 0, 6, 0.00,60.00,Thursday
141,55268271.94121755
190,0.0
2,5, 1, 5, 0, 7, 0.00,60.00,Thursday
141,55795268.20719903
190,0.0
2,5, 1, 5, 0, 8, 0.00,60.00,Thursday
141,56237551.09201617
190,0.0
2,5, 1, 5, 0, 9, 0.00,60.00,Thursday
141,56370934.51646078
190,0.0
2,5, 1, 5, 0,10, 0.00,60.00,Thursday
141,57168066.12330407
190,0.0
2,5, 1, 5, 0,11, 0.00,60.00,Thursday
141,56889466.18959412
190,0.0
2,5, 1, 5, 0,12, 0.00,60.00,Thursday
141,54948130.60735195
190,0.0
2,5, 1, 5, 0,13, 0.00,60.00,Thursday
141,54175887.44475299
190,0.0
2,5, 1, 5, 0,14, 0.00,60.00,Thursday
141,52658715.196993634
190,0.0
2,5, 1, 5, 0,15, 0.00,60.00,Thursday
141,51359252.108183056
190,0.0
2,5, 1, 5, 0,16, 0.00,60.00,Thursday
141,51950256.571369365
190,0.0
2,5, 1, 5, 0,17, 0.00,60.00,Thursday
141,51443403.73786033
190,0.0
2,5, 1, 5, 0,18, 0.00,60.00,Thursday
141,50593131.68816894
190,0.0
2,5, 1, 5, 0,19, 0.00,60.00,Thursday
141,50680362.48524897
190,0.0
2,5, 1, 5, 0,20, 0.00,60.00,Thursday
141,50420482.782676056
190,0.0
2,5, 1, 5, 0,21, 0.00,60.00,Thursday
141,50066506.12686482
190,0.0
2,5, 1, 5, 0,22, 0.00,60.00,Thursday
141,49979999.71117417
190,0.0
2,5, 1, 5, 0,23, 0.00,60.00,Thursday
141,50163192.14669445
190,0.0
2,5, 1, 5, 0,24, 0.00,60.00,Thursday
141,50392033.59213528
190,0.0
2,6, 1, 6, 0, 1, 0.00,60.00,Friday
141,50531367.238789715
190,0.0
2,6, 1, 6, 0, 2, 0.00,60.00,Friday
141,50671621.66453888
190,0.0
2,6, 1, 6, 0, 3, 0.00,60.00,Friday
141,51866776.53986603
190,0.0
2,6, 1, 6, 0, 4, 0.00,60.00,Friday
141,53031022.42552337
190,0.0
2,6, 1, 6, 0, 5, 0.00,60.00,Friday
141,53631288.71356941
190,0.0
2,6, 1, 6, 0, 6, 0.00,60.00,Friday
141,54381317.388388574
190,0.0
2,6, 1, 6, 0, 7, 0.00,60.00,Friday
141,55512391.46096007
190,0.0
2,6, 1, 6, 0, 8, 0.00,60.00,Friday
141,56600512.60656023
190,0.0
2,6, 1, 6, 0, 9, 0.00,60.00,Friday
141,57927502.04316063
190,0.0
2,6, 1, 6, 0,10, 0.00,60.00,Friday
141,58755220.81920789
190,0.0
2,6, 1, 6, 0,11, 0.00,60.00,Friday
141,57987414.21197466
190,0.0
2,6, 1, 6, 0,12, 0.00,60.00,Friday
141,56748443.02143257
190,0.0
2,6, 1, 6, 0,13, 0.00,60.00,Friday
141,56191907.36720657
190,0.0
2,6, 1, 6, 0,14, 0.00,60.00,Friday
141,55960670.50601959
190,0.0
2,6, 1, 6, 0,15, 0.00,60.00,Friday
141,55558682.84997831
190,0.0
2,6, 1, 6, 0,16, 0.00,60.00,Friday
141,54620852.38056394
190,0.0
2,6, 1, 6, 0,17, 0.00,60.00,Friday
141,53628973.14071137
190,0.0
2,6, 1, 6, 0,18, 0.00,60.00,Friday
141,53103374.808970705
190,0.0
2,6, 1, 6, 0,19, 0.00,60.00,Friday
141,52545643.305832535
190,0.0
2,6, 1, 6, 0,20, 0.00,60.00,Friday
141,51350411.31025679
190,0.0
2,6, 1, 6, 0,21, 0.00,60.00,Friday
141,48452583.0245384
190,0.0
2,6, 1, 6, 0,22, 0.00,60.00,Friday
141,45012997.16392156
190,0.0
2,6, 1, 6, 0,23, 0.00,60.00,Friday
141,43523199.152567014
190,0.0
2,6, 1, 6, 0,24, 0.00,60.00,Friday
141,43933901.2572885
190,0.0
2,7, 1, 7, 0, 1, 0.00,60.00,Saturday
141,46762840.36166501
190,0.0
2,7, 1, 7, 0, 2, 0.00,60.00,Saturday
141,49561099.634465516
190,0.0
2,7, 1, 7, 0, 3, 0.00,60.00,Saturday
141,49167263.90256182
190,0.0
2,7, 1, 7, 0, 4, 0.00,60.00,Saturday
141,49393510.36747986
190,0.0
2,7, 1, 7, 0, 5, 0.00,60.00,Saturday
141,51304620.31068589
190,0.0
2,7, 1, 7, 0, 6, 0.00,60.00,Saturday
141,52806077.36363226
190,0.0
2,7, 1, 7, 0, 7, 0.00,60.00,Saturday
141,53696071.169253655
190,0.0
2,7, 1, 7, 0, 8, 0.00,60.00,Saturday
141,54152801.10497639
190,0.0
2,7, 1, 7, 0, 9, 0.00,60.00,Saturday
141,53127502.45737583
190,0.0
2,7, 1, 7, 0,10, 0.00,60.00,Saturday
141,52229915.18641903
190,0.0
2,7, 1, 7, 0,11, 0.00,60.00,Saturday
141,49495850.28369283
190,0.0
2,7, 1, 7, 0,12, 0.00,60.00,Saturday
141,46723407.56182415
190,0.0
2,7, 1, 7, 0,13, 0.00,60.00,Saturday
141,44656246.85689322
190,0.0
2,7, 1, 7, 0,14, 0.00,60.00,Saturday
141,43499093.07499657
190,0.0
2,7, 1, 7, 0,15, 0.00,60.00,Saturday
141,43719135.044832565
190,0.0
2,7, 1, 7, 0,16, 0.00,60.00,Saturday
141,44350803.03993679
190,0.0
2,7, 1, 7, 0,17, 0.00,60.00,Saturday
141,44793667.23013742
190,0.0
2,7, 1, 7, 0,18, 0.00,60.00,Saturday
141,45846925.62828584
190,0.0
2,7, 1, 7, 0,19, 0.00,60.00,Saturday
141,46878609.754720695
190,0.0
2,7, 1, 7, 0,20, 0.00,60.00,Saturday
141,47947083.63615928
190,0.0
2,7, 1, 7, 0,21, 0.00,60.00,Saturday
141,48736481.92540644
190,0.0
2,7, 1, 7, 0,22, 0.00,60.00,Saturday
141,48739317.04296047
190,0.0
2,7, 1, 7, 0,23, 0.00,60.00,Saturday
141,48914885.68783997
190,0.0
2,7, 1, 7, 0,24, 0.00,60.00,Saturday
141,48898279.31787025
190,0.0
2,8, 1, 8, 0, 1, 0.00,60.00,Sunday
141,48187455.83653381
190,0.0
2,8, 1, 8, 0, 2, 0.00,60.00,Sunday
141,47386738.292593695
190,0.0
2,8, 1, 8, 0, 3, 0.00,60.00,Sunday
141,46707815.16133216
190,0.0
2,8, 1, 8, 0, 4, 0.00,60.00,Sunday
141,45652050.72932249
190,0.0
2,8, 1, 8, 0, 5, 0.00,60.00,Sunday
141,44299634.096324444
190,0.0
2,8, 1, 8, 0, 6, 0.00,60.00,Sunday
141,43289278.08250495
190,0.0
2,8, 1, 8, 0, 7, 0.00,60.00,Sunday
141,42506439.47565033
190,0.0
2,8, 1, 8, 0, 8, 0.00,60.00,Sunday
141,41804733.75570595
190,0.0
2,8, 1, 8, 0, 9, 0.00,60.00,Sunday
141,41028768.37663806
190,0.0
2,8, 1, 8, 0,10, 0.00,60.00,Sunday
141,40757322.24672546
190,0.0
2,8, 1, 8, 0,11, 0.00,60.00,Sunday
141,40518900.76373077
190,0.0
2,8, 1, 8, 0,12, 0.00,60.00,Sunday
141,40614901.954773895
190,0.0
2,8, 1, 8, 0,13, 0.00,60.00,Sunday
141,40388556.34414855
190,0.0
2,8, 1, 8, 0,14, 0.00,60.00,Sunday
141,40490418.77818559
190,0.0
2,8, 1, 8, 0,15, 0.00,60.00,Sunday
141,42133329.63603069
190,0.0
2,8, 1, 8, 0,16, 0.00,60.00,Sunday
141,43312432.79851717
190,0.0
2,8, 1, 8, 0,17, 0.00,60.00,Sunday
141,43336911.44838721
190,0.0
2,8, 1, 8, 0,18, 0.00,60.00,Sunday
141,43879957.97726291
190,0.0
2,8, 1, 8, 0,19, 0.00,60.00,Sunday
141,43609720.52849857
190,0.0
2,8, 1, 8, 0,20, 0.00,60.00,Sunday
141,42618651.77127882
190,0.0
2,8, 1, 8, 0,21, 0.00,60.00,Sunday
141,41930221.09840493
190,0.0
2,8, 1, 8, 0,22, 0.00,60.00,Sunday
141,42211138.52722455
190,0.0
2,8, 1, 8, 0,23, 0.00,60.00,Sunday
141,42482575.980714664
190,0.0
2,8, 1, 8, 0,24, 0.00,60.00,Sunday
141,43170029.99585755
190,0.0
2,9, 1, 9, 0, 1, 0.00,60.00,Monday
141,43357940.901774734
190,0.0
2,9, 1, 9, 0, 2, 0.00,60.00,Monday
141,43500448.57277229
190,0.0
2,9, 1, 9, 0, 3, 0.00,60.00,Monday
141,43425370.82582473
190,0.0
2,9, 1, 9, 0, 4, 0.00,60.00,Monday
141,43120418.155734174
190,0.0
2,9, 1, 9, 0, 5, 0.00,60.00,Monday
141,42334721.027392045
190,0.0
2,9, 1, 9, 0, 6, 0.00,60.00,Monday
141,41522549.97995412
190,0.0
2,9, 1, 9, 0, 7, 0.00,60.00,Monday
141,40931050.27113398
190,0.0
2,9, 1, 9, 0, 8, 0.00,60.00,Monday
141,40602890.16242258
190,0.0
2,9, 1, 9, 0, 9, 0.00,60.00,Monday
141,39668116.41744195
190,0.0
2,9, 1, 9, 0,10, 0.00,60.00,Monday
141,37396376.53066907
190,0.0
2,9, 1, 9, 0,11, 0.00,60.00,Monday
141,35455098.13699816
190,0.0
2,9, 1, 9, 0,12, 0.00,60.00,Monday
141,34364332.612555474
190,0.0
2,9, 1, 9, 0,13, 0.00,60.00,Monday
141,33439846.27201412
190,0.0
2,9, 1, 9, 0,14, 0.00,60.00,Monday
141,32728167.16601895
190,0.0
2,9, 1, 9, 0,15, 0.00,60.00,Monday
141,32414036.39415198
190,0.0
2,9, 1, 9, 0,16, 0.00,60.00,Monday
141,32765011.233810764
190,0.0
2,9, 1, 9, 0,17, 0.00,60.00,Monday
141,34199229.090437114
190,0.0
2,9, 1, 9, 0,18, 0.00,60.00,Monday
141,35563246.746803135
190,0.0
2,9, 1, 9, 0,19, 0.00,60.00,Monday
141,35389076.51761243
190,0.0
2,9, 1, 9, 0,20, 0.00,60.00,Monday
141,33332816.237093482
190,0.0
2,9, 1, 9, 0,21, 0.00,60.00,Monday
141,31261519.752220906
190,0.0
2,9, 1, 9, 0,22, 0.00,60.00,Monday
141,29970421.651887126
190,0.0
2,9, 1, 9, 0,23, 0.00,60.00,Monday
141,29674088.50120123
190,0.0
2,9, 1, 9, 0,24, 0.00,60.00,Monday
141,29710624.984767403
190,0.0
2,10, 1,10, 0, 1, 0.00,60.00,Tuesday
141,30156197.12205099
190,0.0
2,10, 1,10, 0, 2, 0.00,60.00,Tuesday
141,30412893.991243195
190,0.0
2,10, 1,10, 0, 3, 0.00,60.00,Tuesday
141,30355340.140762083
190,0.0
2,10, 1,10, 0, 4, 0.00,60.00,Tuesday
141,30862393.508244995
190,0.0
2,10, 1,10, 0, 5, 0.00,60.00,Tuesday
141,30985002.921069153
190,0.0
2,10, 1,10, 0, 6, 0.00,60.00,Tuesday
141,30968025.240288895
190,0.0
2,10, 1,10, 0, 7, 0.00,60.00,Tuesday
141,30984402.127712555
190,0.0
2,10, 1,10, 0, 8, 0.00,60.00,Tuesday
141,30717961.66553238
190,0.0
2,10, 1,10, 0, 9, 0.00,60.00,Tuesday
141,30372294.633918054
190,0.0
2,10, 1,10, 0,10, 0.00,60.00,Tuesday
141,29926017.791894652
190,0.0
2,10, 1,10, 0,11, 0.00,60.00,Tuesday
141,29291946.729536507
190,0.0
2,10, 1,10, 0,12, 0.00,60.00,Tuesday
141,28573598.9962429
190,0.0
2,10, 1,10, 0,13, 0.00,60.00,Tuesday
141,28459354.45025681
190,0.0
2,10, 1,10, 0,14, 0.00,60.00,Tuesday
141,31097553.241595663
190,0.0
2,10, 1,10, 0,15, 0.00,60.00,Tuesday
141,33245714.813133966
190,0.0
2,10, 1,10, 0,16, 0.00,60.00,Tuesday
141,34604913.63007008
190,0.0
2,10, 1,10, 0,17, 0.00,60.00,Tuesday
141,36042799.58702477
190,0.0
2,10, 1,10, 0,18, 0.00,60.00,Tuesday
141,37923910.792764135
190,0.0
2,10, 1,10, 0,19, 0.00,60.00,Tuesday
141,39037732.95614302
190,0.0
2,10, 1,10, 0,20, 0.00,60.00,Tuesday
141,39988073.100857444
190,0.0
2,10, 1,10, 0,21, 0.00,60.00,Tuesday
141,41409731.68692026
190,0.0
2,10, 1,10, 0,22, 0.00,60.00,Tuesday
141,42405595.7633042
190,0.0
2,10, 1,10, 0,23, 0.00,60.00,Tuesday
141,42409071.43918956
190,0.0
2,10, 1,10, 0,24, 0.00,60.00,Tuesday
141,43541611.27751339
190,0.0
2,11, 1,11, 0, 1, 0.00,60.00,Wednesday
141,44071715.16827311
190,0.0
2,11, 1,11, 0, 2, 0.00,60.00,Wednesday
141,44589943.8743273
190,0.0
2,11, 1,11, 0, 3, 0.00,60.00,Wednesday
141,45367227.39459565
190,0.0
2,11, 1,11, 0, 4, 0.00,60.00,Wednesday
141,45146780.46852194
190,0.0
2,11, 1,11, 0, 5, 0.00,60.00,Wednesday
141,45024194.96676731
190,0.0
2,11, 1,11, 0, 6, 0.00,60.00,Wednesday
141,45091037.951468706
190,0.0
2,11, 1,11, 0, 7, 0.00,60.00,Wednesday
141,45409571.22132549
190,0.0
2,11, 1,11, 0, 8, 0.00,60.00,Wednesday
141,45718399.381106116
190,0.0
2,11, 1,11, 0, 9, 0.00,60.00,Wednesday
141,45703853.78343682
190,0.0
2,11, 1,11, 0,10, 0.00,60.00,Wednesday
141,45464929.62471535
190,0.0
2,11, 1,11, 0,11, 0.00,60.00,Wednesday
141,44987654.7537373
190,0.0
2,11, 1,11, 0,12, 0.00,60.00,Wednesday
141,44135520.981264606
190,0.0
2,11, 1,11, 0,13, 0.00,60.00,Wednesday
141,43419613.122627676
190,0.0
2,11, 1,11, 0,14, 0.00,60.00,Wednesday
141,43010083.44637814
190,0.0
2,11, 1,11, 0,15, 0.00,60.00,Wednesday
141,42731139.79049643
190,0.0
2,11, 1,11, 0,16, 0.00,60.00,Wednesday
141,42489629.03150599
190,0.0
2,11, 1,11, 0,17, 0.00,60.00,Wednesday
141,41726685.60825378
190,0.0
2,11, 1,11, 0,18, 0.00,60.00,Wednesday
141,41001220.60248703
190,0.0
2,11, 1,11, 0,19, 0.00,60.00,Wednesday
141,40463466.52003833
190,0.0
2,11, 1,11, 0,20, 0.00,60.00,Wednesday
141,40264421.818889685
190,0.0
2,11, 1,11, 0,21, 0.00,60.00,Wednesday
141,40137471.505704306
190,0.0
2,11, 1,11, 0,22, 0.00,60.00,Wednesday
141,39115481.35618335
190,0.0
2,11, 1,11, 0,23, 0.00,60.00,Wednesday
141,38336038.26926281
190,0.0
2,11, 1,11, 0,24, 0.00,60.00,Wednesday
141,38359313.57801244
190,0.0
2,12, 1,12, 0, 1, 0.00,60.00,Thursday
141,38683288.21172155
190,0.0
2,12, 1,12, 0, 2, 0.00,60.00,Thursday
141,38708029.77230981
190,0.0
2,12, 1,12, 0, 3, 0.00,60.00,Thursday
141,38466410.304518715
190,0.0
2,12, 1,12, 0, 4, 0.00,60.00,Thursday
141,38484761.314172715
190,0.0
2,12, 1,12, 0, 5, 0.00,60.00,Thursday
141,38807913.66771708
190,0.0
2,12, 1,12, 0, 6, 0.00,60.00,Thursday
141,39585208.652474046
190,0.0
2,12, 1,12, 0, 7, 0.00,60.00,Thursday
141,40004852.15060318
190,0.0
2,12, 1,12, 0, 8, 0.00,60.00,Thursday
141,40106912.44588397
190,0.0
2,12, 1,12, 0, 9, 0.00,60.00,Thursday
141,39556883.16923895
190,0.0
2,12, 1,12, 0,10, 0.00,60.00,Thursday
141,38361642.63406098
190,0.0
2,12, 1,12, 0,11, 0.00,60.00,Thursday
141,37451288.53384354
190,0.0
2,12, 1,12, 0,12, 0.00,60.00,Thursday
141,36933587.9781894
190,0.0
2,12, 1,12, 0,13, 0.00,60.00,Thursday
141,36266386.93116724
190,0.0
2,12, 1,12, 0,14, 0.00,60.00,Thursday
141,35559451.720936395
190,0.0
2,12, 1,12, 0,15, 0.00,60.00,Thursday
141,35569184.04289917
190,0.0
2,12, 1,12, 0,16, 0.00,60.00,Thursday
141,35899246.94697316
190,0.0
2,12, 1,12, 0,17, 0.00,60.00,Thursday
141,37369053.11362397
190,0.0
2,12, 1,12, 0,18, 0.00,60.00,Thursday
141,38232190.094897926
190,0.0
2,12, 1,12, 0,19, 0.00,60.00,Thursday
141,37905886.42552695
190,0.0
2,12, 1,12, 0,20, 0.00,60.00,Thursday
141,37118952.78768467
190,0.0
2,12, 1,12, 0,21, 0.00,60.00,Thursday
141,36799767.53504787
190,0.0
2,12, 1,12, 0,22, 0.00,60.00,Thursday
141,36251686.04915901
190,0.0
2,12, 1,12, 0,23, 0.00,60.00,Thursday
141,36020074.137703694
190,0.0
2,12, 1,12, 0,24, 0.00,60.00,Thursday
141,36010582.20688673
190,0.0
2,13, 1,13, 0, 1, 0.00,60.00,Friday
141,35593321.37934871
190,0.0
2,13, 1,13, 0, 2, 0.00,60.00,Friday
141,35194713.996735714
190,0.0
2,13, 1,13, 0, 3, 0.00,60.00,Friday
141,34630259.8196667
190,0.0
2,13, 1,13, 0, 4, 0.00,60.00,Friday
141,34252237.86352429
190,0.0
2,13, 1,13, 0, 5, 0.00,60.00,Friday
141,34137496.611649245
190,0.0
2,13, 1,13, 0, 6, 0.00,60.00,Friday
141,34147238.8270377
190,0.0
2,13, 1,13, 0, 7, 0.00,60.00,Friday
141,34372162.71166337
190,0.0
2,13, 1,13, 0, 8, 0.00,60.00,Friday
141,34328081.10709412
190,0.0
2,13, 1,13, 0, 9, 0.00,60.00,Friday
141,33911922.19973151
190,0.0
2,13, 1,13, 0,10, 0.00,60.00,Friday
141,34763014.73585337
190,0.0
2,13, 1,13, 0,11, 0.00,60.00,Friday
141,35737249.13147897
190,0.0
2,13, 1,13, 0,12, 0.00,60.00,Friday
141,35788698.53315079
190,0.0
2,13, 1,13, 0,13, 0.00,60.00,Friday
141,35914820.98891951
190,0.0
2,13, 1,13, 0,14, 0.00,60.00,Friday
141,36559785.88641731
190,0.0
2,13, 1,13, 0,15, 0.00,60.00,Friday
141,36936919.70675756
190,0.0
2,13, 1,13, 0,16, 0.00,60.00,Friday
141,36861441.75362334
190,0.0
2,13, 1,13, 0,17, 0.00,60.00,Friday
141,36695252.18228341
190,0.0
2,13, 1,13, 0,18, 0.00,60.00,Friday
141,36622304.09614531
190,0.0
2,13, 1,13, 0,19, 0.00,60.00,Friday
141,37225182.67049582
190,0.0
2,13, 1,13, 0,20, 0.00,60.00,Friday
141,38282914.919352576
190,0.0
2,13, 1,13, 0,21, 0.00,60.00,Friday
141,39247544.115842015
190,0.0
2,13, 1,13, 0,22, 0.00,60.00,Friday
141,39912495.16196199
190,0.0
2,13, 1,13, 0,23, 0.00,60.00,Friday
141,39819702.471869774
190,0.0
2,13, 1,13, 0,24, 0.00,60.00,Friday
141,42428212.563630566
190,0.0
2,14, 1,14, 0, 1, 0.00,60.00,Saturday
141,44288180.98057787
190,0.0
2,14, 1,14, 0, 2, 0.00,60.00,Saturday
141,43755219.88105692
190,0.0
2,14, 1,14, 0, 3, 0.00,60.00,Saturday
141,44046811.57580006
190,0.0
2,14, 1,14, 0, 4, 0.00,60.00,Saturday
141,43911932.61774337
190,0.0
2,14, 1,14, 0, 5, 0.00,60.00,Saturday
141,43949515.40516368
190,0.0
2,14, 1,14, 0, 6, 0.00,60.00,Saturday
141,45842832.20647801
190,0.0
2,14, 1,14, 0, 7, 0.00,60.00,Saturday
141,47312747.49663979
190,0.0
2,14, 1,14, 0, 8, 0.00,60.00,Saturday
141,47031003.12256184
190,0.0
2,14, 1,14, 0, 9, 0.00,60.00,Saturday
141,47924698.61936609
190,0.0
2,14, 1,14, 0,10, 0.00,60.00,Saturday
141,49080508.38167209
190,0.0
2,14, 1,14, 0,11, 0.00,60.00,Saturday
141,48866413.10074879
190,0.0
2,14, 1,14, 0,12, 0.00,60.00,Saturday
141,48422897.81745911
190,0.0
2,14, 1,14, 0,13, 0.00,60.00,Saturday
141,47493657.38971297
190,0.0
2,14, 1,14, 0,14, 0.00,60.00,Saturday
141,45449117.717776895
190,0.0
2,14, 1,14, 0,15, 0.00,60.00,Saturday
141,45170023.9437186
190,0.0
2,14, 1,14, 0,16, 0.00,60.00,Saturday
141,45564049.382431254
190,0.0
2,14, 1,14, 0,17, 0.00,60.00,Saturday
141,46295398.29483322
190,0.0
2,14, 1,14, 0,18, 0.00,60.00,Saturday
141,47784285.887646414
190,0.0
2,14, 1,14, 0,19, 0.00,60.00,Saturday
141,47826175.8923821
190,0.0
2,14, 1,14, 0,20, 0.00,60.00,Saturday
141,48113624.589070864
190,0.0
2,14, 1,14, 0,21, 0.00,60.00,Saturday
141,47951135.98718012
190,0.0
2,14, 1,14, 0,22, 0.00,60.00,Saturday
141,47569809.597342655
190,0.0
2,14, 1,14, 0,23, 0.00,60.00,Saturday
141,47348710.431249045
190,0.0
2,14, 1,14, 0,24, 0.00,60.00,Saturday
141,47346462.852851234
190,0.0
2,15, 1,15, 0, 1, 0.00,60.00,Sunday
141,46548052.49711292
190,0.0
2,15, 1,15, 0, 2, 0.00,60.00,Sunday
141,44432088.40684678
190,0.0
2,15, 1,15, 0, 3, 0.00,60.00,Sunday
141,43426357.94684148
190,0.0
2,15, 1,15, 0, 4, 0.00,60.00,Sunday
141,42695797.30535258
190,0.0
2,15, 1,15, 0, 5, 0.00,60.00,Sunday
141,41269668.08471448
190,0.0
2,15, 1,15, 0, 6, 0.00,60.00,Sunday
141,39718888.8370971
190,0.0
2,15, 1,15, 0, 7, 0.00,60.00,Sunday
141,38144859.50085001
190,0.0
2,15, 1,15, 0, 8, 0.00,60.00,Sunday
141,37031578.14441329
190,0.0
2,15, 1,15, 0, 9, 0.00,60.00,Sunday
141,36122652.24060434
190,0.0
2,15, 1,15, 0,10, 0.00,60.00,Sunday
141,35822677.34414052
190,0.0
2,15, 1,15, 0,11, 0.00,60.00,Sunday
141,36389067.995608084
190,0.0
2,15, 1,15, 0,12, 0.00,60.00,Sunday
141,38175558.0784819
190,0.0
2,15, 1,15, 0,13, 0.00,60.00,Sunday
141,39434105.09895828
190,0.0
2,15, 1,15, 0,14, 0.00,60.00,Sunday
141,39845590.74092645
190,0.0
2,15, 1,15, 0,15, 0.00,60.00,Sunday
141,39933894.70560388
190,0.0
2,15, 1,15, 0,16, 0.00,60.00,Sunday
141,39334878.6355645
190,0.0
2,15, 1,15, 0,17, 0.00,60.00,Sunday
141,38931468.50868644
190,0.0
2,15, 1,15, 0,18, 0.00,60.00,Sunday
141,39017450.85997827
190,0.0
2,15, 1,15, 0,19, 0.00,60.00,Sunday
141,39312889.28435169
190,0.0
2,15, 1,15, 0,20, 0.00,60.00,Sunday
141,39704346.53122505
190,0.0
2,15, 1,15, 0,21, 0.00,60.00,Sunday
141,40604704.21257874
190,0.0
2,15, 1,15, 0,22, 0.00,60.00,Sunday
141,41022199.61884188
190,0.0
2,15, 1,15, 0,23, 0.00,60.00,Sunday
141,41106607.03948262
190,0.0
2,15, 1,15, 0,24, 0.00,60.00,Sunday
141,41403386.12831587
190,0.0
2,16, 1,16, 0, 1, 0.00,60.00,Monday
141,42339670.45015798
190,0.0
2,16, 1,16, 0, 2, 0.00,60.00,Monday
141,43238288.49769814
190,0.0
2,16, 1,16, 0, 3, 0.00,60.00,Monday
141,43793782.32719491
190,0.0
2,16, 1,16, 0, 4, 0.00,60.00,Monday
141,44216867.078543834
190,0.0
2,16, 1,16, 0, 5, 0.00,60.00,Monday
141,44780597.183155574
190,0.0
2,16, 1,16, 0, 6, 0.00,60.00,Monday
141,45255401.47503388
190,0.0
2,16, 1,16, 0, 7, 0.00,60.00,Monday
141,46161825.50208086
190,0.0
2,16, 1,16, 0, 8, 0.00,60.00,Monday
141,47008311.19751578
190,0.0
2,16, 1,16, 0, 9, 0.00,60.00,Monday
141,47384375.68469333
190,0.0
2,16, 1,16, 0,10, 0.00,60.00,Monday
141,47419831.02600133
190,0.0
2,16, 1,16, 0,11, 0.00,60.00,Monday
141,45630100.83743888
190,0.0
2,16, 1,16, 0,12, 0.00,60.00,Monday
141,44035691.81257501
190,0.0
2,16, 1,16, 0,13, 0.00,60.00,Monday
141,42746740.51110906
190,0.0
2,16, 1,16, 0,14, 0.00,60.00,Monday
141,41828935.60114072
190,0.0
2,16, 1,16, 0,15, 0.00,60.00,Monday
141,41663335.74555687
190,0.0
2,16, 1,16, 0,16, 0.00,60.00,Monday
141,41997720.640919596
190,0.0
2,16, 1,16, 0,17, 0.00,60.00,Monday
141,42898357.43572988
190,0.0
2,16, 1,16, 0,18, 0.00,60.00,Monday
141,44633319.11063407
190,0.0
2,16, 1,16, 0,19, 0.00,60.00,Monday
141,46442890.08471802
190,0.0
2,16, 1,16, 0,20, 0.00,60.00,Monday
141,47341846.912102826
190,0.0
2,16, 1,16, 0,21, 0.00,60.00,Monday
141,48040819.900409944
190,0.0
2,16, 1,16, 0,22, 0.00,60.00,Monday
141,48672666.6843693
190,0.0
2,16, 1,16, 0,23, 0.00,60.00,Monday
141,49641463.745707795
190,0.0
2,16, 1,16, 0,24, 0.00,60.00,Monday
141,49834253.24414019
190,0.0
2,17, 1,17, 0, 1, 0.00,60.00,Tuesday
141,50125344.36354163
190,0.0
2,17, 1,17, 0, 2, 0.00,60.00,Tuesday
141,51368028.55002698
190,0.0
2,17, 1,17, 0, 3, 0.00,60.00,Tuesday
141,52455927.73145903
190,0.0
2,17, 1,17, 0, 4, 0.00,60.00,Tuesday
141,53414857.814935625
190,0.0
2,17, 1,17, 0, 5, 0.00,60.00,Tuesday
141,54472025.621193126
190,0.0
2,17, 1,17, 0, 6, 0.00,60.00,Tuesday
141,55527909.787043944
190,0.0
2,17, 1,17, 0, 7, 0.00,60.00,Tuesday
141,56189226.49133308
190,0.0
2,17, 1,17, 0, 8, 0.00,60.00,Tuesday
141,56578140.856662266
190,0.0
2,17, 1,17, 0, 9, 0.00,60.00,Tuesday
141,56719680.35804469
190,0.0
2,17, 1,17, 0,10, 0.00,60.00,Tuesday
141,54716978.4481272
190,0.0
2,17, 1,17, 0,11, 0.00,60.00,Tuesday
141,51720918.94020578
190,0.0
2,17, 1,17, 0,12, 0.00,60.00,Tuesday
141,49118482.72506343
190,0.0
2,17, 1,17, 0,13, 0.00,60.00,Tuesday
141,47542414.0029892
190,0.0
2,17, 1,17, 0,14, 0.00,60.00,Tuesday
141,47054967.2760613
190,0.0
2,17, 1,17, 0,15, 0.00,60.00,Tuesday
141,47277925.32963329
190,0.0
2,17, 1,17, 0,16, 0.00,60.00,Tuesday
141,48396545.133874536
190,0.0
2,17, 1,17, 0,17, 0.00,60.00,Tuesday
141,49172108.6311141
190,0.0
2,17, 1,17, 0,18, 0.00,60.00,Tuesday
141,48911182.75751728
190,0.0
2,17, 1,17, 0,19, 0.00,60.00,Tuesday
141,48491223.51458342
190,0.0
2,17, 1,17, 0,20, 0.00,60.00,Tuesday
141,48540979.06309156
190,0.0
2,17, 1,17, 0,21, 0.00,60.00,Tuesday
141,48872540.43027817
190,0.0
2,17, 1,17, 0,22, 0.00,60.00,Tuesday
141,48890486.008472025
190,0.0
2,17, 1,17, 0,23, 0.00,60.00,Tuesday
141,48946239.61018254
190,0.0
2,17, 1,17, 0,24, 0.00,60.00,Tuesday
141,49616475.84902195
190,0.0
2,18, 1,18, 0, 1, 0.00,60.00,Wednesday
141,50088759.19115921
190,0.0
2,18, 1,18, 0, 2, 0.00,60.00,Wednesday
141,50500327.48468264
190,0.0
2,18, 1,18, 0, 3, 0.00,60.00,Wednesday
141,50753903.74869887
190,0.0
2,18, 1,18, 0, 4, 0.00,60.00,Wednesday
141,50875014.25898005
190,0.0
2,18, 1,18, 0, 5, 0.00,60.00,Wednesday
141,51076310.14369601
190,0.0
2,18, 1,18, 0, 6, 0.00,60.00,Wednesday
141,51378416.161115184
190,0.0
2,18, 1,18, 0, 7, 0.00,60.00,Wednesday
141,52517778.857682325
190,0.0
2,18, 1,18, 0, 8, 0.00,60.00,Wednesday
141,52903981.40296028
190,0.0
2,18, 1,18, 0, 9, 0.00,60.00,Wednesday
141,53127661.0148253
190,0.0
2,18, 1,18, 0,10, 0.00,60.00,Wednesday
141,53107297.32189446
190,0.0
2,18, 1,18, 0,11, 0.00,60.00,Wednesday
141,52134727.161182106
190,0.0
2,18, 1,18, 0,12, 0.00,60.00,Wednesday
141,51384465.39334668
190,0.0
2,18, 1,18, 0,13, 0.00,60.00,Wednesday
141,51740257.19582901
190,0.0
2,18, 1,18, 0,14, 0.00,60.00,Wednesday
141,52483904.76641838
190,0.0
2,18, 1,18, 0,15, 0.00,60.00,Wednesday
141,52853093.607632436
190,0.0
2,18, 1,18, 0,16, 0.00,60.00,Wednesday
141,53674961.457135476
190,0.0
2,18, 1,18, 0,17, 0.00,60.00,Wednesday
141,54055830.31072717
190,0.0
2,18, 1,18, 0,18, 0.00,60.00,Wednesday
141,53669513.341718726
190,0.0
2,18, 1,18, 0,19, 0.00,60.00,Wednesday
141,53477116.28582298
190,0.0
2,18, 1,18, 0,20, 0.00,60.00,Wednesday
141,53620928.31325483
190,0.0
2,18, 1,18, 0,21, 0.00,60.00,Wednesday
141,53729513.30115862
190,0.0
2,18, 1,18, 0,22, 0.00,60.00,Wednesday
141,54012257.626101464
190,0.0
2,18, 1,18, 0,23, 0.00,60.00,Wednesday
141,54214710.81132881
190,0.0
2,18, 1,18, 0,24, 0.00,60.00,Wednesday
141,54484048.007191144
190,0.0
2,19, 1,19, 0, 1, 0.00,60.00,Thursday
141,54154584.57976961
190,0.0
2,19, 1,19, 0, 2, 0.00,60.00,Thursday
141,54303097.639880925
190,0.0
2,19, 1,19, 0, 3, 0.00,60.00,Thursday
141,55193611.34746725