Program Version,EnergyPlus, Version 24.2.0-94a887817b, YMD=2025.04.24 13:20
1,5,Environment Title[],Latitude[deg],Longitude[deg],Time Zone[],Elevation[m]
2,8,Day of Simulation[],Month[],Day of Month[],DST Indicator[1=yes 0=no],Hour[],StartMinute[],EndMinute[],DayType
3,5,Cumulative Day of Simulation[],Month[],Day of Month[],DST Indicator[1=yes 0=no],DayType  ! When Daily Report Variables Requested
4,2,Cumulative Days of Simulation[],Month[]  ! When Monthly Report Variables Requested
5,1,Cumulative Days of Simulation[] ! When Run Period Report Variables Requested
6,1,Calendar Year of Simulation[] ! When Annual Report Variables Requested
141,1,ZONE_0599100000214842 IDEAL LOADS AIR SYSTEM,Zone Ideal Loads Supply Air Total Heating Energy [J] !Hourly
190,1,ZONE_0599100000214842 IDEAL LOADS AIR SYSTEM,Zone Ideal Loads Supply Air Total Cooling Energy [J] !Hourly
End of Data Dictionary
1,RUN PERIOD 1,  51.96,   4.45,   1.00,  -4.50
2,1, 1, 1, 0, 1, 0.00,60.00,Sunday
141,206512373.9693163
190,0.0
2,1, 1, 1, 0, 2, 0.00,60.00,Sunday
141,214527912.57465544
190,0.0
2,1, 1, 1, 0, 3, 0.00,60.00,Sunday
141,214322508.11254084
190,0.0
2,1, 1, 1, 0, 4, 0.00,60.00,Sunday
141,220228773.6778819
190,0.0
2,1, 1, 1, 0, 5, 0.00,60.00,Sunday
141,224231010.95718524
190,0.0
2,1, 1, 1, 0, 6, 0.00,60.00,Sunday
141,224608339.12482527
190,0.0
2,1, 1, 1, 0, 7, 0.00,60.00,Sunday
141,225288981.5037763
190,0.0
2,1, 1, 1, 0, 8, 0.00,60.00,Sunday
141,224719369.31128967
190,0.0
2,1, 1, 1, 0, 9, 0.00,60.00,Sunday
141,224247381.46943492
190,0.0
2,1, 1, 1, 0,10, 0.00,60.00,Sunday
141,222345195.21451354
190,0.0
2,1, 1, 1, 0,11, 0.00,60.00,Sunday
141,217395407.63066542
190,0.0
2,1, 1, 1, 0,12, 0.00,60.00,Sunday
141,209361055.59635633
190,0.0
2,1, 1, 1, 0,13, 0.00,60.00,Sunday
141,205480235.90298668
190,0.0
2,1, 1, 1, 0,14, 0.00,60.00,Sunday
141,200090003.23305807
190,0.0
2,1, 1, 1, 0,15, 0.00,60.00,Sunday
141,196373226.74147582
190,0.0
2,1, 1, 1, 0,16, 0.00,60.00,Sunday
141,200184788.28526142
190,0.0
2,1, 1, 1, 0,17, 0.00,60.00,Sunday
141,204906741.20361096
190,0.0
2,1, 1, 1, 0,18, 0.00,60.00,Sunday
141,206359850.7908916
190,0.0
2,1, 1, 1, 0,19, 0.00,60.00,Sunday
141,207573353.82774478
190,0.0
2,1, 1, 1, 0,20, 0.00,60.00,Sunday
141,207177743.01947352
190,0.0
2,1, 1, 1, 0,21, 0.00,60.00,Sunday
141,206228118.68043077
190,0.0
2,1, 1, 1, 0,22, 0.00,60.00,Sunday
141,206560858.05941048
190,0.0
2,1, 1, 1, 0,23, 0.00,60.00,Sunday
141,200716368.97856456
190,0.0
2,1, 1, 1, 0,24, 0.00,60.00,Sunday
141,196339917.18795368
190,0.0
2,2, 1, 2, 0, 1, 0.00,60.00,Monday
141,196942628.63973364
190,0.0
2,2, 1, 2, 0, 2, 0.00,60.00,Monday
141,191095219.11275363
190,0.0
2,2, 1, 2, 0, 3, 0.00,60.00,Monday
141,186593051.6139988
190,0.0
2,2, 1, 2, 0, 4, 0.00,60.00,Monday
141,182051224.37348726
190,0.0
2,2, 1, 2, 0, 5, 0.00,60.00,Monday
141,172244498.742618
190,0.0
2,2, 1, 2, 0, 6, 0.00,60.00,Monday
141,167551797.49108076
190,0.0
2,2, 1, 2, 0, 7, 0.00,60.00,Monday
141,160231463.05163684
190,0.0
2,2, 1, 2, 0, 8, 0.00,60.00,Monday
141,151330540.39644226
190,0.0
2,2, 1, 2, 0, 9, 0.00,60.00,Monday
141,154042372.30495602
190,0.0
2,2, 1, 2, 0,10, 0.00,60.00,Monday
141,160631991.94733408
190,0.0
2,2, 1, 2, 0,11, 0.00,60.00,Monday
141,165099843.26832804
190,0.0
2,2, 1, 2, 0,12, 0.00,60.00,Monday
141,161280515.47952327
190,0.0
2,2, 1, 2, 0,13, 0.00,60.00,Monday
141,159657136.18205446
190,0.0
2,2, 1, 2, 0,14, 0.00,60.00,Monday
141,164149947.47917774
190,0.0
2,2, 1, 2, 0,15, 0.00,60.00,Monday
141,165964344.70202997
190,0.0
2,2, 1, 2, 0,16, 0.00,60.00,Monday
141,170072739.46527106
190,0.0
2,2, 1, 2, 0,17, 0.00,60.00,Monday
141,174055907.0553005
190,0.0
2,2, 1, 2, 0,18, 0.00,60.00,Monday
141,174561292.16914988
190,0.0
2,2, 1, 2, 0,19, 0.00,60.00,Monday
141,178951169.31193042
190,0.0
2,2, 1, 2, 0,20, 0.00,60.00,Monday
141,182960761.51001105
190,0.0
2,2, 1, 2, 0,21, 0.00,60.00,Monday
141,183394632.81511456
190,0.0
2,2, 1, 2, 0,22, 0.00,60.00,Monday
141,183020035.12063244
190,0.0
2,2, 1, 2, 0,23, 0.00,60.00,Monday
141,182961277.33825058
190,0.0
2,2, 1, 2, 0,24, 0.00,60.00,Monday
141,183024450.16222432
190,0.0
2,3, 1, 3, 0, 1, 0.00,60.00,Tuesday
141,183267777.29622135
190,0.0
2,3, 1, 3, 0, 2, 0.00,60.00,Tuesday
141,183146813.40482375
190,0.0
2,3, 1, 3, 0, 3, 0.00,60.00,Tuesday
141,182923391.0235499
190,0.0
2,3, 1, 3, 0, 4, 0.00,60.00,Tuesday
141,183611696.71391356
190,0.0
2,3, 1, 3, 0, 5, 0.00,60.00,Tuesday
141,189045661.46810818
190,0.0
2,3, 1, 3, 0, 6, 0.00,60.00,Tuesday
141,192592649.60357377
190,0.0
2,3, 1, 3, 0, 7, 0.00,60.00,Tuesday
141,194338294.42034644
190,0.0
2,3, 1, 3, 0, 8, 0.00,60.00,Tuesday
141,193946761.7323728
190,0.0
2,3, 1, 3, 0, 9, 0.00,60.00,Tuesday
141,198465260.03112414
190,0.0
2,3, 1, 3, 0,10, 0.00,60.00,Tuesday
141,200699739.62011504
190,0.0
2,3, 1, 3, 0,11, 0.00,60.00,Tuesday
141,201350582.20410046
190,0.0
2,3, 1, 3, 0,12, 0.00,60.00,Tuesday
141,202797895.6617365
190,0.0
2,3, 1, 3, 0,13, 0.00,60.00,Tuesday
141,209685624.42827493
190,0.0
2,3, 1, 3, 0,14, 0.00,60.00,Tuesday
141,213497368.53409946
190,0.0
2,3, 1, 3, 0,15, 0.00,60.00,Tuesday
141,212750793.58590713
190,0.0
2,3, 1, 3, 0,16, 0.00,60.00,Tuesday
141,212069604.780026
190,0.0
2,3, 1, 3, 0,17, 0.00,60.00,Tuesday
141,212339798.34212565
190,0.0
2,3, 1, 3, 0,18, 0.00,60.00,Tuesday
141,212924181.46832174
190,0.0
2,3, 1, 3, 0,19, 0.00,60.00,Tuesday
141,211850102.17495796
190,0.0
2,3, 1, 3, 0,20, 0.00,60.00,Tuesday
141,206522416.35548145
190,0.0
2,3, 1, 3, 0,21, 0.00,60.00,Tuesday
141,192108050.6701374
190,0.0
2,3, 1, 3, 0,22, 0.00,60.00,Tuesday
141,184375366.62237978
190,0.0
2,3, 1, 3, 0,23, 0.00,60.00,Tuesday
141,189895350.24199075
190,0.0
2,3, 1, 3, 0,24, 0.00,60.00,Tuesday
141,199315575.25457543
190,0.0
2,4, 1, 4, 0, 1, 0.00,60.00,Wednesday
141,204021236.08952534
190,0.0
2,4, 1, 4, 0, 2, 0.00,60.00,Wednesday
141,203302363.34319878
190,0.0
2,4, 1, 4, 0, 3, 0.00,60.00,Wednesday
141,201901412.3750908
190,0.0
2,4, 1, 4, 0, 4, 0.00,60.00,Wednesday
141,203502959.83683938
190,0.0
2,4, 1, 4, 0, 5, 0.00,60.00,Wednesday
141,209769648.52650353
190,0.0
2,4, 1, 4, 0, 6, 0.00,60.00,Wednesday
141,208160122.18240413
190,0.0
2,4, 1, 4, 0, 7, 0.00,60.00,Wednesday
141,207904765.1339004
190,0.0
2,4, 1, 4, 0, 8, 0.00,60.00,Wednesday
141,210480609.08896595
190,0.0
2,4, 1, 4, 0, 9, 0.00,60.00,Wednesday
141,212381891.42792618
190,0.0
2,4, 1, 4, 0,10, 0.00,60.00,Wednesday
141,213945254.04462177
190,0.0
2,4, 1, 4, 0,11, 0.00,60.00,Wednesday
141,202749617.9895727
190,0.0
2,4, 1, 4, 0,12, 0.00,60.00,Wednesday
141,183728649.07659173
190,0.0
2,4, 1, 4, 0,13, 0.00,60.00,Wednesday
141,178708180.58615
190,0.0
2,4, 1, 4, 0,14, 0.00,60.00,Wednesday
141,178135184.5765556
190,0.0
2,4, 1, 4, 0,15, 0.00,60.00,Wednesday
141,176405587.03196895
190,0.0
2,4, 1, 4, 0,16, 0.00,60.00,Wednesday
141,184341924.29187134
190,0.0
2,4, 1, 4, 0,17, 0.00,60.00,Wednesday
141,198469624.8422969
190,0.0
2,4, 1, 4, 0,18, 0.00,60.00,Wednesday
141,210670406.27325544
190,0.0
2,4, 1, 4, 0,19, 0.00,60.00,Wednesday
141,223019959.68495327
190,0.0
2,4, 1, 4, 0,20, 0.00,60.00,Wednesday
141,229408758.88860983
190,0.0
2,4, 1, 4, 0,21, 0.00,60.00,Wednesday
141,232169131.6069111
190,0.0
2,4, 1, 4, 0,22, 0.00,60.00,Wednesday
141,237947301.6864507
190,0.0
2,4, 1, 4, 0,23, 0.00,60.00,Wednesday
141,235038200.21780834
190,0.0
2,4, 1, 4, 0,24, 0.00,60.00,Wednesday
141,230321623.30640468
190,0.0
2,5, 1, 5, 0, 1, 0.00,60.00,Thursday
141,231636286.25584286
190,0.0
2,5, 1, 5, 0, 2, 0.00,60.00,Thursday
141,228337918.66587806
190,0.0
2,5, 1, 5, 0, 3, 0.00,60.00,Thursday
141,225201319.32629386
190,0.0
2,5, 1, 5, 0, 4, 0.00,60.00,Thursday
141,225675430.48478904
190,0.0
2,5, 1, 5, 0, 5, 0.00,60.00,Thursday
141,222290166.02109212
190,0.0
2,5, 1, 5, 0, 6, 0.00,60.00,Thursday
141,220934251.8375162
190,0.0
2,5, 1, 5, 0, 7, 0.00,60.00,Thursday
141,223301792.07289213
190,0.0
2,5, 1, 5, 0, 8, 0.00,60.00,Thursday
141,225438874.33039486
190,0.0
2,5, 1, 5, 0, 9, 0.00,60.00,Thursday
141,226331587.9505625
190,0.0
2,5, 1, 5, 0,10, 0.00,60.00,Thursday
141,230220156.06802556
190,0.0
2,5, 1, 5, 0,11, 0.00,60.00,Thursday
141,229406017.75776634
190,0.0
2,5, 1, 5, 0,12, 0.00,60.00,Thursday
141,221332246.89480725
190,0.0
2,5, 1, 5, 0,13, 0.00,60.00,Thursday
141,218570801.861637
190,0.0
2,5, 1, 5, 0,14, 0.00,60.00,Thursday
141,212770319.19273245
190,0.0
2,5, 1, 5, 0,15, 0.00,60.00,Thursday
141,208159195.53033125
190,0.0
2,5, 1, 5, 0,16, 0.00,60.00,Thursday
141,212004996.95924595
190,0.0
2,5, 1, 5, 0,17, 0.00,60.00,Thursday
141,211014069.89565924
190,0.0
2,5, 1, 5, 0,18, 0.00,60.00,Thursday
141,208375543.28394938
190,0.0
2,5, 1, 5, 0,19, 0.00,60.00,Thursday
141,209649396.18557405
190,0.0
2,5, 1, 5, 0,20, 0.00,60.00,Thursday
141,209173327.72196162
190,0.0
2,5, 1, 5, 0,21, 0.00,60.00,Thursday
141,208094221.56349805
190,0.0
2,5, 1, 5, 0,22, 0.00,60.00,Thursday
141,208049148.85427052
190,0.0
2,5, 1, 5, 0,23, 0.00,60.00,Thursday
141,209080583.35825923
190,0.0
2,5, 1, 5, 0,24, 0.00,60.00,Thursday
141,210235348.04735744
190,0.0
2,6, 1, 6, 0, 1, 0.00,60.00,Friday
141,210949405.08921942
190,0.0
2,6, 1, 6, 0, 2, 0.00,60.00,Friday
141,211642950.04719347
190,0.0
2,6, 1, 6, 0, 3, 0.00,60.00,Friday
141,216966204.5474024
190,0.0
2,6, 1, 6, 0, 4, 0.00,60.00,Friday
141,222133453.43037632
190,0.0
2,6, 1, 6, 0, 5, 0.00,60.00,Friday
141,224786808.93151098
190,0.0
2,6, 1, 6, 0, 6, 0.00,60.00,Friday
141,228050538.54374772
190,0.0
2,6, 1, 6, 0, 7, 0.00,60.00,Friday
141,232929645.0228783
190,0.0
2,6, 1, 6, 0, 8, 0.00,60.00,Friday
141,237549497.23181123
190,0.0
2,6, 1, 6, 0, 9, 0.00,60.00,Friday
141,243144807.15159705
190,0.0
2,6, 1, 6, 0,10, 0.00,60.00,Friday
141,246458426.6012787
190,0.0
2,6, 1, 6, 0,11, 0.00,60.00,Friday
141,242667144.65508327
190,0.0
2,6, 1, 6, 0,12, 0.00,60.00,Friday
141,236787560.66873783
190,0.0
2,6, 1, 6, 0,13, 0.00,60.00,Friday
141,234040652.67904946
190,0.0
2,6, 1, 6, 0,14, 0.00,60.00,Friday
141,232989505.73427007
190,0.0
2,6, 1, 6, 0,15, 0.00,60.00,Friday
141,231502045.718782
190,0.0
2,6, 1, 6, 0,16, 0.00,60.00,Friday
141,227908071.37304053
190,0.0
2,6, 1, 6, 0,17, 0.00,60.00,Friday
141,224168186.03963935
190,0.0
2,6, 1, 6, 0,18, 0.00,60.00,Friday
141,222394782.26576176
190,0.0
2,6, 1, 6, 0,19, 0.00,60.00,Friday
141,220280105.48567927
190,0.0
2,6, 1, 6, 0,20, 0.00,60.00,Friday
141,215086141.75677902
190,0.0
2,6, 1, 6, 0,21, 0.00,60.00,Friday
141,202089991.33085802
190,0.0
2,6, 1, 6, 0,22, 0.00,60.00,Friday
141,186538859.337479
190,0.0
2,6, 1, 6, 0,23, 0.00,60.00,Friday
141,179583617.2180161
190,0.0
2,6, 1, 6, 0,24, 0.00,60.00,Friday
141,181109526.61754677
190,0.0
2,7, 1, 7, 0, 1, 0.00,60.00,Saturday
141,193410644.94161808
190,0.0
2,7, 1, 7, 0, 2, 0.00,60.00,Saturday
141,205665972.24103191
190,0.0
2,7, 1, 7, 0, 3, 0.00,60.00,Saturday
141,203892905.26643175
190,0.0
2,7, 1, 7, 0, 4, 0.00,60.00,Saturday
141,204828626.44218552
190,0.0
2,7, 1, 7, 0, 5, 0.00,60.00,Saturday
141,213147499.8361633
190,0.0
2,7, 1, 7, 0, 6, 0.00,60.00,Saturday
141,219639085.94258294
190,0.0
2,7, 1, 7, 0, 7, 0.00,60.00,Saturday
141,223420964.67843023
190,0.0
2,7, 1, 7, 0, 8, 0.00,60.00,Saturday
141,225266384.91044816
190,0.0
2,7, 1, 7, 0, 9, 0.00,60.00,Saturday
141,220543457.29823813
190,0.0
2,7, 1, 7, 0,10, 0.00,60.00,Saturday
141,216338702.06573176
190,0.0
2,7, 1, 7, 0,11, 0.00,60.00,Saturday
141,204034166.75228637
190,0.0
2,7, 1, 7, 0,12, 0.00,60.00,Saturday
141,191676832.36231717
190,0.0
2,7, 1, 7, 0,13, 0.00,60.00,Saturday
141,182787956.5519666
190,0.0
2,7, 1, 7, 0,14, 0.00,60.00,Saturday
141,178465552.1610066
190,0.0
2,7, 1, 7, 0,15, 0.00,60.00,Saturday
141,180771551.2759123
190,0.0
2,7, 1, 7, 0,16, 0.00,60.00,Saturday
141,185264037.129439
190,0.0
2,7, 1, 7, 0,17, 0.00,60.00,Saturday
141,189004865.86064142
190,0.0
2,7, 1, 7, 0,18, 0.00,60.00,Saturday
141,195214657.83801436
190,0.0
2,7, 1, 7, 0,19, 0.00,60.00,Saturday
141,200905871.96541354
190,0.0
2,7, 1, 7, 0,20, 0.00,60.00,Saturday
141,206282222.49293703
190,0.0
2,7, 1, 7, 0,21, 0.00,60.00,Saturday
141,209995795.9358003
190,0.0
2,7, 1, 7, 0,22, 0.00,60.00,Saturday
141,209902029.3449272
190,0.0
2,7, 1, 7, 0,23, 0.00,60.00,Saturday
141,210307932.92497718
190,0.0
2,7, 1, 7, 0,24, 0.00,60.00,Saturday
141,209637994.8209636
190,0.0
2,8, 1, 8, 0, 1, 0.00,60.00,Sunday
141,205656669.13116312
190,0.0
2,8, 1, 8, 0, 2, 0.00,60.00,Sunday
141,201082682.5209459
190,0.0
2,8, 1, 8, 0, 3, 0.00,60.00,Sunday
141,196956075.08366418
190,0.0
2,8, 1, 8, 0, 4, 0.00,60.00,Sunday
141,191198988.44870108
190,0.0
2,8, 1, 8, 0, 5, 0.00,60.00,Sunday
141,184286778.04096022
190,0.0
2,8, 1, 8, 0, 6, 0.00,60.00,Sunday
141,179109842.69392532
190,0.0
2,8, 1, 8, 0, 7, 0.00,60.00,Sunday
141,175173531.6104255
190,0.0
2,8, 1, 8, 0, 8, 0.00,60.00,Sunday
141,171819708.75320187
190,0.0
2,8, 1, 8, 0, 9, 0.00,60.00,Sunday
141,168333638.07471868
190,0.0
2,8, 1, 8, 0,10, 0.00,60.00,Sunday
141,167226532.45018333
190,0.0
2,8, 1, 8, 0,11, 0.00,60.00,Sunday
141,166385083.1157237
190,0.0
2,8, 1, 8, 0,12, 0.00,60.00,Sunday
141,167099984.32582122
190,0.0
2,8, 1, 8, 0,13, 0.00,60.00,Sunday
141,166456992.8701049
190,0.0
2,8, 1, 8, 0,14, 0.00,60.00,Sunday
141,167271715.5148319
190,0.0
2,8, 1, 8, 0,15, 0.00,60.00,Sunday
141,174816654.83470252
190,0.0
2,8, 1, 8, 0,16, 0.00,60.00,Sunday
141,180226398.49274832
190,0.0
2,8, 1, 8, 0,17, 0.00,60.00,Sunday
141,180432672.19498548
190,0.0
2,8, 1, 8, 0,18, 0.00,60.00,Sunday
141,182765440.09877747
190,0.0
2,8, 1, 8, 0,19, 0.00,60.00,Sunday
141,181361891.63973695
190,0.0
2,8, 1, 8, 0,20, 0.00,60.00,Sunday
141,176691167.18994072
190,0.0
2,8, 1, 8, 0,21, 0.00,60.00,Sunday
141,173316174.54455155
190,0.0
2,8, 1, 8, 0,22, 0.00,60.00,Sunday
141,174185706.850051
190,0.0
2,8, 1, 8, 0,23, 0.00,60.00,Sunday
141,175020911.8829961
190,0.0
2,8, 1, 8, 0,24, 0.00,60.00,Sunday
141,177713113.9131776
190,0.0
2,9, 1, 9, 0, 1, 0.00,60.00,Monday
141,178229947.93436018
190,0.0
2,9, 1, 9, 0, 2, 0.00,60.00,Monday
141,178558529.01781097
190,0.0
2,9, 1, 9, 0, 3, 0.00,60.00,Monday
141,177925568.58770928
190,0.0
2,9, 1, 9, 0, 4, 0.00,60.00,Monday
141,176300701.47065204
190,0.0
2,9, 1, 9, 0, 5, 0.00,60.00,Monday
141,172619177.23760825
190,0.0
2,9, 1, 9, 0, 6, 0.00,60.00,Monday
141,168913162.00938332
190,0.0
2,9, 1, 9, 0, 7, 0.00,60.00,Monday
141,166281300.103626
190,0.0
2,9, 1, 9, 0, 8, 0.00,60.00,Monday
141,164917004.56436062
190,0.0
2,9, 1, 9, 0, 9, 0.00,60.00,Monday
141,160971050.00707668
190,0.0
2,9, 1, 9, 0,10, 0.00,60.00,Monday
141,151191970.70514348
190,0.0
2,9, 1, 9, 0,11, 0.00,60.00,Monday
141,142872349.37499923
190,0.0
2,9, 1, 9, 0,12, 0.00,60.00,Monday
141,138314340.52890125
190,0.0
2,9, 1, 9, 0,13, 0.00,60.00,Monday
141,134560008.97403032
190,0.0
2,9, 1, 9, 0,14, 0.00,60.00,Monday
141,131841104.41623513
190,0.0
2,9, 1, 9, 0,15, 0.00,60.00,Monday
141,130947870.93029195
190,0.0
2,9, 1, 9, 0,16, 0.00,60.00,Monday
141,132987650.067415
190,0.0
2,9, 1, 9, 0,17, 0.00,60.00,Monday
141,139738259.8650366
190,0.0
2,9, 1, 9, 0,18, 0.00,60.00,Monday
141,146085635.65348175
190,0.0
2,9, 1, 9, 0,19, 0.00,60.00,Monday
141,145547682.99707597
190,0.0
2,9, 1, 9, 0,20, 0.00,60.00,Monday
141,136627498.66825178
190,0.0
2,9, 1, 9, 0,21, 0.00,60.00,Monday
141,127607062.46294847
190,0.0
2,9, 1, 9, 0,22, 0.00,60.00,Monday
141,122056284.34760198
190,0.0
2,9, 1, 9, 0,23, 0.00,60.00,Monday
141,120979891.80937624
190,0.0
2,9, 1, 9, 0,24, 0.00,60.00,Monday
141,121494925.13765474
190,0.0
2,10, 1,10, 0, 1, 0.00,60.00,Tuesday
141,123914674.66147716
190,0.0
2,10, 1,10, 0, 2, 0.00,60.00,Tuesday
141,125553647.96352051
190,0.0
2,10, 1,10, 0, 3, 0.00,60.00,Tuesday
141,125806292.23381968
190,0.0
2,10, 1,10, 0, 4, 0.00,60.00,Tuesday
141,128514775.49489042
190,0.0
2,10, 1,10, 0, 5, 0.00,60.00,Tuesday
141,129485543.86022088
190,0.0
2,10, 1,10, 0, 6, 0.00,60.00,Tuesday
141,129778518.53842512
190,0.0
2,10, 1,10, 0, 7, 0.00,60.00,Tuesday
141,130139000.27722917
190,0.0
2,10, 1,10, 0, 8, 0.00,60.00,Tuesday
141,129179184.50337367
190,0.0
2,10, 1,10, 0, 9, 0.00,60.00,Tuesday
141,127813751.18438815
190,0.0
2,10, 1,10, 0,10, 0.00,60.00,Tuesday
141,125958674.10884324
190,0.0
2,10, 1,10, 0,11, 0.00,60.00,Tuesday
141,123241540.54789966
190,0.0
2,10, 1,10, 0,12, 0.00,60.00,Tuesday
141,120136537.24083836
190,0.0
2,10, 1,10, 0,13, 0.00,60.00,Tuesday
141,119697939.8199485
190,0.0
2,10, 1,10, 0,14, 0.00,60.00,Tuesday
141,131376399.16802205
190,0.0
2,10, 1,10, 0,15, 0.00,60.00,Tuesday
141,140839795.31967896
190,0.0
2,10, 1,10, 0,16, 0.00,60.00,Tuesday
141,146706097.6382404
190,0.0
2,10, 1,10, 0,17, 0.00,60.00,Tuesday
141,152743785.42742547
190,0.0
2,10, 1,10, 0,18, 0.00,60.00,Tuesday
141,160547931.6730383
190,0.0
2,10, 1,10, 0,19, 0.00,60.00,Tuesday
141,164728023.45991546
190,0.0
2,10, 1,10, 0,20, 0.00,60.00,Tuesday
141,167901186.32018694
190,0.0
2,10, 1,10, 0,21, 0.00,60.00,Tuesday
141,172885292.00537097
190,0.0
2,10, 1,10, 0,22, 0.00,60.00,Tuesday
141,175820382.62644616
190,0.0
2,10, 1,10, 0,23, 0.00,60.00,Tuesday
141,174298509.8201166
190,0.0
2,10, 1,10, 0,24, 0.00,60.00,Tuesday
141,177720311.10649183
190,0.0
2,11, 1,11, 0, 1, 0.00,60.00,Wednesday
141,178521427.15180492
190,0.0
2,11, 1,11, 0, 2, 0.00,60.00,Wednesday
141,179354361.41742903
190,0.0
2,11, 1,11, 0, 3, 0.00,60.00,Wednesday
141,181470375.36550885
190,0.0
2,11, 1,11, 0, 4, 0.00,60.00,Wednesday
141,179425561.61985576
190,0.0
2,11, 1,11, 0, 5, 0.00,60.00,Wednesday
141,178094860.4182488
190,0.0
2,11, 1,11, 0, 6, 0.00,60.00,Wednesday
141,177869001.99513152
190,0.0
2,11, 1,11, 0, 7, 0.00,60.00,Wednesday
141,178987363.22153148
190,0.0
2,11, 1,11, 0, 8, 0.00,60.00,Wednesday
141,180250405.94314057
190,0.0
2,11, 1,11, 0, 9, 0.00,60.00,Wednesday
141,180228938.66502014
190,0.0
2,11, 1,11, 0,10, 0.00,60.00,Wednesday
141,179313419.8900441
190,0.0
2,11, 1,11, 0,11, 0.00,60.00,Wednesday
141,177417651.29737347
190,0.0
2,11, 1,11, 0,12, 0.00,60.00,Wednesday
141,173995314.46815997
190,0.0
2,11, 1,11, 0,13, 0.00,60.00,Wednesday
141,171418926.08523452
190,0.0
2,11, 1,11, 0,14, 0.00,60.00,Wednesday
141,170516346.7735784
190,0.0
2,11, 1,11, 0,15, 0.00,60.00,Wednesday
141,170497983.04365215
190,0.0
2,11, 1,11, 0,16, 0.00,60.00,Wednesday
141,170849313.80518335
190,0.0
2,11, 1,11, 0,17, 0.00,60.00,Wednesday
141,168936800.48452634
190,0.0
2,11, 1,11, 0,18, 0.00,60.00,Wednesday
141,167032977.3540182
190,0.0
2,11, 1,11, 0,19, 0.00,60.00,Wednesday
141,165669223.915355
190,0.0
2,11, 1,11, 0,20, 0.00,60.00,Wednesday
141,165477601.64429882
190,0.0
2,11, 1,11, 0,21, 0.00,60.00,Wednesday
141,165337027.16240793
190,0.0
2,11, 1,11, 0,22, 0.00,60.00,Wednesday
141,161063427.9487045
190,0.0
2,11, 1,11, 0,23, 0.00,60.00,Wednesday
141,157736973.5719233
190,0.0
2,11, 1,11, 0,24, 0.00,60.00,Wednesday
141,157882968.79413223
190,0.0
2,12, 1,12, 0, 1, 0.00,60.00,Thursday
141,159335597.17506608
190,0.0
2,12, 1,12, 0, 2, 0.00,60.00,Thursday
141,159474052.73121423
190,0.0
2,12, 1,12, 0, 3, 0.00,60.00,Thursday
141,158436969.85210285
190,0.0
2,12, 1,12, 0, 4, 0.00,60.00,Thursday
141,158529194.61015576
190,0.0
2,12, 1,12, 0, 5, 0.00,60.00,Thursday
141,159947590.44777453
190,0.0
2,12, 1,12, 0, 6, 0.00,60.00,Thursday
141,163358788.54312938
190,0.0
2,12, 1,12, 0, 7, 0.00,60.00,Thursday
141,165195453.86467978
190,0.0
2,12, 1,12, 0, 8, 0.00,60.00,Thursday
141,165632943.29312193
190,0.0
2,12, 1,12, 0, 9, 0.00,60.00,Thursday
141,163193868.3855163
190,0.0
2,12, 1,12, 0,10, 0.00,60.00,Thursday
141,157908960.4347238
190,0.0
2,12, 1,12, 0,11, 0.00,60.00,Thursday
141,153879457.10083282
190,0.0
2,12, 1,12, 0,12, 0.00,60.00,Thursday
141,151566823.27878344
190,0.0
2,12, 1,12, 0,13, 0.00,60.00,Thursday
141,148537308.3624975
190,0.0
2,12, 1,12, 0,14, 0.00,60.00,Thursday
141,145263660.78863263
190,0.0
2,12, 1,12, 0,15, 0.00,60.00,Thursday
141,145106662.92384848
190,0.0
2,12, 1,12, 0,16, 0.00,60.00,Thursday
141,146357770.63123298
190,0.0
2,12, 1,12, 0,17, 0.00,60.00,Thursday
141,152650798.1910157
190,0.0
2,12, 1,12, 0,18, 0.00,60.00,Thursday
141,156303522.39277452
190,0.0
2,12, 1,12, 0,19, 0.00,60.00,Thursday
141,154738796.0625903
190,0.0
2,12, 1,12, 0,20, 0.00,60.00,Thursday
141,151156292.46150154
190,0.0
2,12, 1,12, 0,21, 0.00,60.00,Thursday
141,149654766.62214285
190,0.0
2,12, 1,12, 0,22, 0.00,60.00,Thursday
141,147211204.7324865
190,0.0
2,12, 1,12, 0,23, 0.00,60.00,Thursday
141,146256634.50220335
190,0.0
2,12, 1,12, 0,24, 0.00,60.00,Thursday
141,146369572.3489344
190,0.0
2,13, 1,13, 0, 1, 0.00,60.00,Friday
141,144759196.68154407
190,0.0
2,13, 1,13, 0, 2, 0.00,60.00,Friday
141,143278951.67652535
190,0.0
2,13, 1,13, 0, 3, 0.00,60.00,Friday
141,141093929.71945006
190,0.0
2,13, 1,13, 0, 4, 0.00,60.00,Friday
141,139740146.26281476
190,0.0
2,13, 1,13, 0, 5, 0.00,60.00,Friday
141,139547927.27939123
190,0.0
2,13, 1,13, 0, 6, 0.00,60.00,Friday
141,139898199.57907772
190,0.0
2,13, 1,13, 0, 7, 0.00,60.00,Friday
141,141150114.29416147
190,0.0
2,13, 1,13, 0, 8, 0.00,60.00,Friday
141,141157203.61615434
190,0.0
2,13, 1,13, 0, 9, 0.00,60.00,Friday
141,139492908.2178511
190,0.0
2,13, 1,13, 0,10, 0.00,60.00,Friday
141,143366604.92691964
190,0.0
2,13, 1,13, 0,11, 0.00,60.00,Friday
141,147713325.60208336
190,0.0
2,13, 1,13, 0,12, 0.00,60.00,Friday
141,147916898.71303436
190,0.0
2,13, 1,13, 0,13, 0.00,60.00,Friday
141,148367323.57044423
190,0.0
2,13, 1,13, 0,14, 0.00,60.00,Friday
141,151015685.27784136
190,0.0
2,13, 1,13, 0,15, 0.00,60.00,Friday
141,152414811.79865626
190,0.0
2,13, 1,13, 0,16, 0.00,60.00,Friday
141,151766551.25389233
190,0.0
2,13, 1,13, 0,17, 0.00,60.00,Friday
141,150731190.44021526
190,0.0
2,13, 1,13, 0,18, 0.00,60.00,Friday
141,150205701.66431725
190,0.0
2,13, 1,13, 0,19, 0.00,60.00,Friday
141,152754401.4855909
190,0.0
2,13, 1,13, 0,20, 0.00,60.00,Friday
141,157343638.3810344
190,0.0
2,13, 1,13, 0,21, 0.00,60.00,Friday
141,161458778.45678663
190,0.0
2,13, 1,13, 0,22, 0.00,60.00,Friday
141,164074475.59285313
190,0.0
2,13, 1,13, 0,23, 0.00,60.00,Friday
141,163147468.35391992
190,0.0
2,13, 1,13, 0,24, 0.00,60.00,Friday
141,173970538.07128644
190,0.0
2,14, 1,14, 0, 1, 0.00,60.00,Saturday
141,181456263.59779084
190,0.0
2,14, 1,14, 0, 2, 0.00,60.00,Saturday
141,178463495.94201326
190,0.0
2,14, 1,14, 0, 3, 0.00,60.00,Saturday
141,179210825.89919913
190,0.0
2,14, 1,14, 0, 4, 0.00,60.00,Saturday
141,178192736.11079052
190,0.0
2,14, 1,14, 0, 5, 0.00,60.00,Saturday
141,178025810.40269658
190,0.0
2,14, 1,14, 0, 6, 0.00,60.00,Saturday
141,186044627.7412026
190,0.0
2,14, 1,14, 0, 7, 0.00,60.00,Saturday
141,192105758.05560362
190,0.0
2,14, 1,14, 0, 8, 0.00,60.00,Saturday
141,190321572.15938488
190,0.0
2,14, 1,14, 0, 9, 0.00,60.00,Saturday
141,193590370.8533476
190,0.0
2,14, 1,14, 0,10, 0.00,60.00,Saturday
141,197950218.24508458
190,0.0
2,14, 1,14, 0,11, 0.00,60.00,Saturday
141,196333462.30758193
190,0.0
2,14, 1,14, 0,12, 0.00,60.00,Saturday
141,193865225.4569597
190,0.0
2,14, 1,14, 0,13, 0.00,60.00,Saturday
141,189486302.10684586
190,0.0
2,14, 1,14, 0,14, 0.00,60.00,Saturday
141,180464566.0552176
190,0.0
2,14, 1,14, 0,15, 0.00,60.00,Saturday
141,179504071.59839797
190,0.0
2,14, 1,14, 0,16, 0.00,60.00,Saturday
141,181782855.30031326
190,0.0
2,14, 1,14, 0,17, 0.00,60.00,Saturday
141,185664710.59495255
190,0.0
2,14, 1,14, 0,18, 0.00,60.00,Saturday
141,192663094.01128244
190,0.0
2,14, 1,14, 0,19, 0.00,60.00,Saturday
141,192905505.5279156
190,0.0
2,14, 1,14, 0,20, 0.00,60.00,Saturday
141,193884952.73333985
190,0.0
2,14, 1,14, 0,21, 0.00,60.00,Saturday
141,192642248.65719202
190,0.0
2,14, 1,14, 0,22, 0.00,60.00,Saturday
141,190311122.5847723
190,0.0
2,14, 1,14, 0,23, 0.00,60.00,Saturday
141,188654217.55930206
190,0.0
2,14, 1,14, 0,24, 0.00,60.00,Saturday
141,188005673.5202556
190,0.0
2,15, 1,15, 0, 1, 0.00,60.00,Sunday
141,183951178.665446
190,0.0
2,15, 1,15, 0, 2, 0.00,60.00,Sunday
141,174235896.43610796
190,0.0
2,15, 1,15, 0, 3, 0.00,60.00,Sunday
141,169594626.78022656
190,0.0
2,15, 1,15, 0, 4, 0.00,60.00,Sunday
141,166393995.97801977
190,0.0
2,15, 1,15, 0, 5, 0.00,60.00,Sunday
141,160374837.39911014
190,0.0
2,15, 1,15, 0, 6, 0.00,60.00,Sunday
141,154028111.52523494
190,0.0
2,15, 1,15, 0, 7, 0.00,60.00,Sunday
141,147756199.9022609
190,0.0
2,15, 1,15, 0, 8, 0.00,60.00,Sunday
141,143652710.61748722
190,0.0
2,15, 1,15, 0, 9, 0.00,60.00,Sunday
141,140552731.10427332
190,0.0
2,15, 1,15, 0,10, 0.00,60.00,Sunday
141,140205733.40161598
190,0.0
2,15, 1,15, 0,11, 0.00,60.00,Sunday
141,143728927.6347743
190,0.0
2,15, 1,15, 0,12, 0.00,60.00,Sunday
141,152647740.93793657
190,0.0
2,15, 1,15, 0,13, 0.00,60.00,Sunday
141,159205528.24804974
190,0.0
2,15, 1,15, 0,14, 0.00,60.00,Sunday
141,161868984.16618654
190,0.0
2,15, 1,15, 0,15, 0.00,60.00,Sunday
141,162852818.78843692
190,0.0
2,15, 1,15, 0,16, 0.00,60.00,Sunday
141,160551923.91464442
190,0.0
2,15, 1,15, 0,17, 0.00,60.00,Sunday
141,158909158.89457676
190,0.0
2,15, 1,15, 0,18, 0.00,60.00,Sunday
141,159312237.27497122
190,0.0
2,15, 1,15, 0,19, 0.00,60.00,Sunday
141,160633887.45154554
190,0.0
2,15, 1,15, 0,20, 0.00,60.00,Sunday
141,162387896.6418939
190,0.0
2,15, 1,15, 0,21, 0.00,60.00,Sunday
141,166310008.67576703
190,0.0
2,15, 1,15, 0,22, 0.00,60.00,Sunday
141,167983182.61681774
190,0.0
2,15, 1,15, 0,23, 0.00,60.00,Sunday
141,168047893.32382932
190,0.0
2,15, 1,15, 0,24, 0.00,60.00,Sunday
141,168929811.65872797
190,0.0
2,16, 1,16, 0, 1, 0.00,60.00,Monday
141,172540821.0814721
190,0.0
2,16, 1,16, 0, 2, 0.00,60.00,Monday
141,175934675.77496034
190,0.0
2,16, 1,16, 0, 3, 0.00,60.00,Monday
141,177812540.362247
190,0.0
2,16, 1,16, 0, 4, 0.00,60.00,Monday
141,179182964.97198385
190,0.0
2,16, 1,16, 0, 5, 0.00,60.00,Monday
141,181297412.75678247
190,0.0
2,16, 1,16, 0, 6, 0.00,60.00,Monday
141,183133144.0165705
190,0.0
2,16, 1,16, 0, 7, 0.00,60.00,Monday
141,186950121.30848172
190,0.0
2,16, 1,16, 0, 8, 0.00,60.00,Monday
141,190557854.0681687
190,0.0
2,16, 1,16, 0, 9, 0.00,60.00,Monday
141,192128927.7239294
190,0.0
2,16, 1,16, 0,10, 0.00,60.00,Monday
141,192215505.5123565
190,0.0
2,16, 1,16, 0,11, 0.00,60.00,Monday
141,184274446.3815255
190,0.0
2,16, 1,16, 0,12, 0.00,60.00,Monday
141,177289350.53711408
190,0.0
2,16, 1,16, 0,13, 0.00,60.00,Monday
141,171909288.52965984
190,0.0
2,16, 1,16, 0,14, 0.00,60.00,Monday
141,168411627.89669478
190,0.0
2,16, 1,16, 0,15, 0.00,60.00,Monday
141,168191614.47347346
190,0.0
2,16, 1,16, 0,16, 0.00,60.00,Monday
141,169965499.43796572
190,0.0
2,16, 1,16, 0,17, 0.00,60.00,Monday
141,174041375.27315125
190,0.0
2,16, 1,16, 0,18, 0.00,60.00,Monday
141,181685162.5113806
190,0.0
2,16, 1,16, 0,19, 0.00,60.00,Monday
141,189673506.37984985
190,0.0
2,16, 1,16, 0,20, 0.00,60.00,Monday
141,193692772.83131275
190,0.0
2,16, 1,16, 0,21, 0.00,60.00,Monday
141,196839269.6358841
190,0.0
2,16, 1,16, 0,22, 0.00,60.00,Monday
141,199681227.35525
190,0.0
2,16, 1,16, 0,23, 0.00,60.00,Monday
141,204004972.51303542
190,0.0
2,16, 1,16, 0,24, 0.00,60.00,Monday
141,204905210.26937518
190,0.0
2,17, 1,17, 0, 1, 0.00,60.00,Tuesday
141,206138959.1536628
190,0.0
2,17, 1,17, 0, 2, 0.00,60.00,Tuesday
141,211332605.63323206
190,0.0
2,17, 1,17, 0, 3, 0.00,60.00,Tuesday
141,215623083.6906484
190,0.0
2,17, 1,17, 0, 4, 0.00,60.00,Tuesday
141,219251387.50116476
190,0.0
2,17, 1,17, 0, 5, 0.00,60.00,Tuesday
141,223320448.5859632
190,0.0
2,17, 1,17, 0, 6, 0.00,60.00,Tuesday
141,227435467.14502782
190,0.0
2,17, 1,17, 0, 7, 0.00,60.00,Tuesday
141,229866178.41837463
190,0.0
2,17, 1,17, 0, 8, 0.00,60.00,Tuesday
141,231141863.8706953
190,0.0
2,17, 1,17, 0, 9, 0.00,60.00,Tuesday
141,231366096.50754312
190,0.0
2,17, 1,17, 0,10, 0.00,60.00,Tuesday
141,222189428.69692904
190,0.0
2,17, 1,17, 0,11, 0.00,60.00,Tuesday
141,208699138.87545288
190,0.0
2,17, 1,17, 0,12, 0.00,60.00,Tuesday
141,197126137.24531353
190,0.0
2,17, 1,17, 0,13, 0.00,60.00,Tuesday
141,190507170.89419723
190,0.0
2,17, 1,17, 0,14, 0.00,60.00,Tuesday
141,189314482.19212645
190,0.0
2,17, 1,17, 0,15, 0.00,60.00,Tuesday
141,191890139.4964766
190,0.0
2,17, 1,17, 0,16, 0.00,60.00,Tuesday
141,198848032.6057692
190,0.0
2,17, 1,17, 0,17, 0.00,60.00,Tuesday
141,204404697.84753042
190,0.0
2,17, 1,17, 0,18, 0.00,60.00,Tuesday
141,205184412.88686898
190,0.0
2,17, 1,17, 0,19, 0.00,60.00,Tuesday
141,204811637.7781077
190,0.0
2,17, 1,17, 0,20, 0.00,60.00,Tuesday
141,205956825.20999262
190,0.0
2,17, 1,17, 0,21, 0.00,60.00,Tuesday
141,207841474.84032997
190,0.0
2,17, 1,17, 0,22, 0.00,60.00,Tuesday
141,207964567.80955607
190,0.0
2,17, 1,17, 0,23, 0.00,60.00,Tuesday
141,207981850.27842045
190,0.0
2,17, 1,17, 0,24, 0.00,60.00,Tuesday
141,210520073.92550272
190,0.0
2,18, 1,18, 0, 1, 0.00,60.00,Wednesday
141,212015185.5761708
190,0.0
2,18, 1,18, 0, 2, 0.00,60.00,Wednesday
141,213011997.46988237
190,0.0
2,18, 1,18, 0, 3, 0.00,60.00,Wednesday
141,213122837.34543562
190,0.0
2,18, 1,18, 0, 4, 0.00,60.00,Wednesday
141,212613192.09582353
190,0.0
2,18, 1,18, 0, 5, 0.00,60.00,Wednesday
141,212549695.37760097
190,0.0
2,18, 1,18, 0, 6, 0.00,60.00,Wednesday
141,213073734.97970757
190,0.0
2,18, 1,18, 0, 7, 0.00,60.00,Wednesday
141,217437922.55448467
190,0.0
2,18, 1,18, 0, 8, 0.00,60.00,Wednesday
141,218626896.0288351
190,0.0
2,18, 1,18, 0, 9, 0.00,60.00,Wednesday
141,219216163.60540408
190,0.0
2,18, 1,18, 0,10, 0.00,60.00,Wednesday
141,218822523.52642143
190,0.0
2,18, 1,18, 0,11, 0.00,60.00,Wednesday
141,214315299.59697297
190,0.0
2,18, 1,18, 0,12, 0.00,60.00,Wednesday
141,210874826.2599811
190,0.0
2,18, 1,18, 0,13, 0.00,60.00,Wednesday
141,212421563.9472636
190,0.0
2,18, 1,18, 0,14, 0.00,60.00,Wednesday
141,215808944.14525825
190,0.0
2,18, 1,18, 0,15, 0.00,60.00,Wednesday
141,217662130.06282
190,0.0
2,18, 1,18, 0,16, 0.00,60.00,Wednesday
141,221565816.6296973
190,0.0
2,18, 1,18, 0,17, 0.00,60.00,Wednesday
141,223517776.2878253
190,0.0
2,18, 1,18, 0,18, 0.00,60.00,Wednesday
141,222021990.91831428
190,0.0
2,18, 1,18, 0,19, 0.00,60.00,Wednesday
141,221257142.420986
190,0.0
2,18, 1,18, 0,20, 0.00,60.00,Wednesday
141,221868863.11324245
190,0.0
2,18, 1,18, 0,21, 0.00,60.00,Wednesday
141,222276174.55264592
190,0.0
2,18, 1,18, 0,22, 0.00,60.00,Wednesday
141,223445212.56355926
190,0.0
2,18, 1,18, 0,23, 0.00,60.00,Wednesday
141,224279204.28081453
190,0.0
2,18, 1,18, 0,24, 0.00,60.00,Wednesday