Program Version,EnergyPlus, Version 24.2.0-94a887817b, YMD=2025.04.24 13:21
1,5,Environment Title[],Latitude[deg],Longitude[deg],Time Zone[],Elevation[m]
2,8,Day of Simulation[],Month[],Day of Month[],DST Indicator[1=yes 0=no],Hour[],StartMinute[],EndMinute[],DayType
3,5,Cumulative Day of Simulation[],Month[],Day of Month[],DST Indicator[1=yes 0=no],DayType  ! When Daily Report Variables Requested
4,2,Cumulative Days of Simulation[],Month[]  ! When Monthly Report Variables Requested
5,1,Cumulative Days of Simulation[] ! When Run Period Report Variables Requested
6,1,Calendar Year of Simulation[] ! When Annual Report Variables Requested
141,1,ZONE_0599100000380260 IDEAL LOADS AIR SYSTEM,Zone Ideal Loads Supply Air Total Heating Energy [J] !Hourly
190,1,ZONE_0599100000380260 IDEAL LOADS AIR SYSTEM,Zone Ideal Loads Supply Air Total Cooling Energy [J] !Hourly
End of Data Dictionary
1,RUN PERIOD 1,  51.96,   4.45,   1.00,  -4.50
2,1, 1, 1, 0, 1, 0.00,60.00,Sunday
141,32021362.137799952
190,0.0
2,1, 1, 1, 0, 2, 0.00,60.00,Sunday
141,33195316.58442618
190,0.0
2,1, 1, 1, 0, 3, 0.00,60.00,Sunday
141,33178982.105837997
190,0.0
2,1, 1, 1, 0, 4, 0.00,60.00,Sunday
141,34043304.44385963
190,0.0
2,1, 1, 1, 0, 5, 0.00,60.00,Sunday
141,34629988.77213509
190,0.0
2,1, 1, 1, 0, 6, 0.00,60.00,Sunday
141,34689477.3714771
190,0.0
2,1, 1, 1, 0, 7, 0.00,60.00,Sunday
141,34788397.04435456
190,0.0
2,1, 1, 1, 0, 8, 0.00,60.00,Sunday
141,34702027.421860136
190,0.0
2,1, 1, 1, 0, 9, 0.00,60.00,Sunday
141,34624981.08472722
190,0.0
2,1, 1, 1, 0,10, 0.00,60.00,Sunday
141,34336894.20307069
190,0.0
2,1, 1, 1, 0,11, 0.00,60.00,Sunday
141,33605599.13170127
190,0.0
2,1, 1, 1, 0,12, 0.00,60.00,Sunday
141,32426155.57493216
190,0.0
2,1, 1, 1, 0,13, 0.00,60.00,Sunday
141,31845223.12377115
190,0.0
2,1, 1, 1, 0,14, 0.00,60.00,Sunday
141,31046514.566341884
190,0.0
2,1, 1, 1, 0,15, 0.00,60.00,Sunday
141,30492749.016459633
190,0.0
2,1, 1, 1, 0,16, 0.00,60.00,Sunday
141,31033291.04326785
190,0.0
2,1, 1, 1, 0,17, 0.00,60.00,Sunday
141,31715136.701552443
190,0.0
2,1, 1, 1, 0,18, 0.00,60.00,Sunday
141,31933935.931460846
190,0.0
2,1, 1, 1, 0,19, 0.00,60.00,Sunday
141,32126564.40534924
190,0.0
2,1, 1, 1, 0,20, 0.00,60.00,Sunday
141,32093175.54318856
190,0.0
2,1, 1, 1, 0,21, 0.00,60.00,Sunday
141,31982833.83375932
190,0.0
2,1, 1, 1, 0,22, 0.00,60.00,Sunday
141,32057614.795502137
190,0.0
2,1, 1, 1, 0,23, 0.00,60.00,Sunday
141,31238107.878614023
190,0.0
2,1, 1, 1, 0,24, 0.00,60.00,Sunday
141,30628191.010759927
190,0.0
2,2, 1, 2, 0, 1, 0.00,60.00,Monday
141,30734449.551551178
190,0.0
2,2, 1, 2, 0, 2, 0.00,60.00,Monday
141,29905770.722844012
190,0.0
2,2, 1, 2, 0, 3, 0.00,60.00,Monday
141,29268729.13105623
190,0.0
2,2, 1, 2, 0, 4, 0.00,60.00,Monday
141,28623879.02884279
190,0.0
2,2, 1, 2, 0, 5, 0.00,60.00,Monday
141,27217111.587313633
190,0.0
2,2, 1, 2, 0, 6, 0.00,60.00,Monday
141,26548741.70590864
190,0.0
2,2, 1, 2, 0, 7, 0.00,60.00,Monday
141,25501314.278814025
190,0.0
2,2, 1, 2, 0, 8, 0.00,60.00,Monday
141,24226943.256258667
190,0.0
2,2, 1, 2, 0, 9, 0.00,60.00,Monday
141,24633165.167293303
190,0.0
2,2, 1, 2, 0,10, 0.00,60.00,Monday
141,25602013.1821992
190,0.0
2,2, 1, 2, 0,11, 0.00,60.00,Monday
141,26267407.621569432
190,0.0
2,2, 1, 2, 0,12, 0.00,60.00,Monday
141,25738906.108967222
190,0.0
2,2, 1, 2, 0,13, 0.00,60.00,Monday
141,25530706.513552602
190,0.0
2,2, 1, 2, 0,14, 0.00,60.00,Monday
141,26208065.115197316
190,0.0
2,2, 1, 2, 0,15, 0.00,60.00,Monday
141,26498683.669418573
190,0.0
2,2, 1, 2, 0,16, 0.00,60.00,Monday
141,27119113.337390866
190,0.0
2,2, 1, 2, 0,17, 0.00,60.00,Monday
141,27718478.005473297
190,0.0
2,2, 1, 2, 0,18, 0.00,60.00,Monday
141,27811487.132742748
190,0.0
2,2, 1, 2, 0,19, 0.00,60.00,Monday
141,28461075.300174147
190,0.0
2,2, 1, 2, 0,20, 0.00,60.00,Monday
141,29050155.43778824
190,0.0
2,2, 1, 2, 0,21, 0.00,60.00,Monday
141,29117718.83828752
190,0.0
2,2, 1, 2, 0,22, 0.00,60.00,Monday
141,29063054.5877257
190,0.0
2,2, 1, 2, 0,23, 0.00,60.00,Monday
141,29049508.260332502
190,0.0
2,2, 1, 2, 0,24, 0.00,60.00,Monday
141,29049184.115006883
190,0.0
2,3, 1, 3, 0, 1, 0.00,60.00,Tuesday
141,29070742.418016773
190,0.0
2,3, 1, 3, 0, 2, 0.00,60.00,Tuesday
141,29036059.44493752
190,0.0
2,3, 1, 3, 0, 3, 0.00,60.00,Tuesday
141,28983638.213787008
190,0.0
2,3, 1, 3, 0, 4, 0.00,60.00,Tuesday
141,29060674.971894577
190,0.0
2,3, 1, 3, 0, 5, 0.00,60.00,Tuesday
141,29821568.830047842
190,0.0
2,3, 1, 3, 0, 6, 0.00,60.00,Tuesday
141,30308502.874633163
190,0.0
2,3, 1, 3, 0, 7, 0.00,60.00,Tuesday
141,30534245.97476943
190,0.0
2,3, 1, 3, 0, 8, 0.00,60.00,Tuesday
141,30450866.137476128
190,0.0
2,3, 1, 3, 0, 9, 0.00,60.00,Tuesday
141,31077192.137355123
190,0.0
2,3, 1, 3, 0,10, 0.00,60.00,Tuesday
141,31374677.54838229
190,0.0
2,3, 1, 3, 0,11, 0.00,60.00,Tuesday
141,31445179.8310743
190,0.0
2,3, 1, 3, 0,12, 0.00,60.00,Tuesday
141,31633081.55300555
190,0.0
2,3, 1, 3, 0,13, 0.00,60.00,Tuesday
141,32609598.79657924
190,0.0
2,3, 1, 3, 0,14, 0.00,60.00,Tuesday
141,33144526.621310107
190,0.0
2,3, 1, 3, 0,15, 0.00,60.00,Tuesday
141,33023737.93351545
190,0.0
2,3, 1, 3, 0,16, 0.00,60.00,Tuesday
141,32915239.831293494
190,0.0
2,3, 1, 3, 0,17, 0.00,60.00,Tuesday
141,32947036.64667383
190,0.0
2,3, 1, 3, 0,18, 0.00,60.00,Tuesday
141,33026899.335627154
190,0.0
2,3, 1, 3, 0,19, 0.00,60.00,Tuesday
141,32869407.897624567
190,0.0
2,3, 1, 3, 0,20, 0.00,60.00,Tuesday
141,32098963.54623993
190,0.0
2,3, 1, 3, 0,21, 0.00,60.00,Tuesday
141,30016541.68476809
190,0.0
2,3, 1, 3, 0,22, 0.00,60.00,Tuesday
141,28899377.244246878
190,0.0
2,3, 1, 3, 0,23, 0.00,60.00,Tuesday
141,29696152.53203803
190,0.0
2,3, 1, 3, 0,24, 0.00,60.00,Tuesday
141,31055478.074597955
190,0.0
2,4, 1, 4, 0, 1, 0.00,60.00,Wednesday
141,31733008.422870282
190,0.0
2,4, 1, 4, 0, 2, 0.00,60.00,Wednesday
141,31626673.69036249
190,0.0
2,4, 1, 4, 0, 3, 0.00,60.00,Wednesday
141,31421842.745045926
190,0.0
2,4, 1, 4, 0, 4, 0.00,60.00,Wednesday
141,31650406.85894642
190,0.0
2,4, 1, 4, 0, 5, 0.00,60.00,Wednesday
141,32551584.400075823
190,0.0
2,4, 1, 4, 0, 6, 0.00,60.00,Wednesday
141,32312482.750646967
190,0.0
2,4, 1, 4, 0, 7, 0.00,60.00,Wednesday
141,32265948.764038995
190,0.0
2,4, 1, 4, 0, 8, 0.00,60.00,Wednesday
141,32625245.901337765
190,0.0
2,4, 1, 4, 0, 9, 0.00,60.00,Wednesday
141,32884134.82963911
190,0.0
2,4, 1, 4, 0,10, 0.00,60.00,Wednesday
141,33093141.597988065
190,0.0
2,4, 1, 4, 0,11, 0.00,60.00,Wednesday
141,31457970.84397932
190,0.0
2,4, 1, 4, 0,12, 0.00,60.00,Wednesday
141,28691647.001168504
190,0.0
2,4, 1, 4, 0,13, 0.00,60.00,Wednesday
141,27948075.811272454
190,0.0
2,4, 1, 4, 0,14, 0.00,60.00,Wednesday
141,27848590.91845623
190,0.0
2,4, 1, 4, 0,15, 0.00,60.00,Wednesday
141,27585339.091984395
190,0.0
2,4, 1, 4, 0,16, 0.00,60.00,Wednesday
141,28724221.788696595
190,0.0
2,4, 1, 4, 0,17, 0.00,60.00,Wednesday
141,30762173.72922595
190,0.0
2,4, 1, 4, 0,18, 0.00,60.00,Wednesday
141,32527149.966250896
190,0.0
2,4, 1, 4, 0,19, 0.00,60.00,Wednesday
141,34318639.8834601
190,0.0
2,4, 1, 4, 0,20, 0.00,60.00,Wednesday
141,35252995.19324614
190,0.0
2,4, 1, 4, 0,21, 0.00,60.00,Wednesday
141,35665644.50682278
190,0.0
2,4, 1, 4, 0,22, 0.00,60.00,Wednesday
141,36514900.25715193
190,0.0
2,4, 1, 4, 0,23, 0.00,60.00,Wednesday
141,36107861.94071433
190,0.0
2,4, 1, 4, 0,24, 0.00,60.00,Wednesday
141,35436790.460711405
190,0.0
2,5, 1, 5, 0, 1, 0.00,60.00,Thursday
141,35632929.218266904
190,0.0
2,5, 1, 5, 0, 2, 0.00,60.00,Thursday
141,35157889.59572492
190,0.0
2,5, 1, 5, 0, 3, 0.00,60.00,Thursday
141,34701481.06060435
190,0.0
2,5, 1, 5, 0, 4, 0.00,60.00,Thursday
141,34762468.33175354
190,0.0
2,5, 1, 5, 0, 5, 0.00,60.00,Thursday
141,34261709.757945545
190,0.0
2,5, 1, 5, 0, 6, 0.00,60.00,Thursday
141,34050158.06324355
190,0.0
2,5, 1, 5, 0, 7, 0.00,60.00,Thursday
141,34374368.9131476
190,0.0
2,5, 1, 5, 0, 8, 0.00,60.00,Thursday
141,34664077.370431416
190,0.0
2,5, 1, 5, 0, 9, 0.00,60.00,Thursday
141,34774078.8297486
190,0.0
2,5, 1, 5, 0,10, 0.00,60.00,Thursday
141,35318190.13574967
190,0.0
2,5, 1, 5, 0,11, 0.00,60.00,Thursday
141,35185139.377970465
190,0.0
2,5, 1, 5, 0,12, 0.00,60.00,Thursday
141,34006414.55410855
190,0.0
2,5, 1, 5, 0,13, 0.00,60.00,Thursday
141,33598246.59370762
190,0.0
2,5, 1, 5, 0,14, 0.00,60.00,Thursday
141,32754887.609376505
190,0.0
2,5, 1, 5, 0,15, 0.00,60.00,Thursday
141,32087467.716636136
190,0.0
2,5, 1, 5, 0,16, 0.00,60.00,Thursday
141,32648109.219987456
190,0.0
2,5, 1, 5, 0,17, 0.00,60.00,Thursday
141,32517792.55390566
190,0.0
2,5, 1, 5, 0,18, 0.00,60.00,Thursday
141,32157655.619475693
190,0.0
2,5, 1, 5, 0,19, 0.00,60.00,Thursday
141,32370379.062245663
190,0.0
2,5, 1, 5, 0,20, 0.00,60.00,Thursday
141,32335859.679734424
190,0.0
2,5, 1, 5, 0,21, 0.00,60.00,Thursday
141,32217149.35493746
190,0.0
2,5, 1, 5, 0,22, 0.00,60.00,Thursday
141,32248609.97184506
190,0.0
2,5, 1, 5, 0,23, 0.00,60.00,Thursday
141,32434720.66690714
190,0.0
2,5, 1, 5, 0,24, 0.00,60.00,Thursday
141,32636647.27361526
190,0.0
2,6, 1, 6, 0, 1, 0.00,60.00,Friday
141,32772249.052777804
190,0.0
2,6, 1, 6, 0, 2, 0.00,60.00,Friday
141,32901815.186160758
190,0.0
2,6, 1, 6, 0, 3, 0.00,60.00,Friday
141,33697008.70322413
190,0.0
2,6, 1, 6, 0, 4, 0.00,60.00,Friday
141,34466889.91480069
190,0.0
2,6, 1, 6, 0, 5, 0.00,60.00,Friday
141,34870930.386607766
190,0.0
2,6, 1, 6, 0, 6, 0.00,60.00,Friday
141,35361078.50786767
190,0.0
2,6, 1, 6, 0, 7, 0.00,60.00,Friday
141,36082188.03382649
190,0.0
2,6, 1, 6, 0, 8, 0.00,60.00,Friday
141,36763124.426509626
190,0.0
2,6, 1, 6, 0, 9, 0.00,60.00,Friday
141,37581811.47678368
190,0.0
2,6, 1, 6, 0,10, 0.00,60.00,Friday
141,38067169.316575766
190,0.0
2,6, 1, 6, 0,11, 0.00,60.00,Friday
141,37521818.36251613
190,0.0
2,6, 1, 6, 0,12, 0.00,60.00,Friday
141,36669957.989953995
190,0.0
2,6, 1, 6, 0,13, 0.00,60.00,Friday
141,36265684.14680264
190,0.0
2,6, 1, 6, 0,14, 0.00,60.00,Friday
141,36102157.41164154
190,0.0
2,6, 1, 6, 0,15, 0.00,60.00,Friday
141,35873343.30635075
190,0.0
2,6, 1, 6, 0,16, 0.00,60.00,Friday
141,35340817.37927042
190,0.0
2,6, 1, 6, 0,17, 0.00,60.00,Friday
141,34790628.94371893
190,0.0
2,6, 1, 6, 0,18, 0.00,60.00,Friday
141,34529604.00752489
190,0.0
2,6, 1, 6, 0,19, 0.00,60.00,Friday
141,34224245.68658608
190,0.0
2,6, 1, 6, 0,20, 0.00,60.00,Friday
141,33477474.757611137
190,0.0
2,6, 1, 6, 0,21, 0.00,60.00,Friday
141,31605015.552033406
190,0.0
2,6, 1, 6, 0,22, 0.00,60.00,Friday
141,29363326.916846074
190,0.0
2,6, 1, 6, 0,23, 0.00,60.00,Friday
141,28362516.71612374
190,0.0
2,6, 1, 6, 0,24, 0.00,60.00,Friday
141,28585972.918713294
190,0.0
2,7, 1, 7, 0, 1, 0.00,60.00,Saturday
141,30365661.83629483
190,0.0
2,7, 1, 7, 0, 2, 0.00,60.00,Saturday
141,32139208.267020285
190,0.0
2,7, 1, 7, 0, 3, 0.00,60.00,Saturday
141,31887471.509023868
190,0.0
2,7, 1, 7, 0, 4, 0.00,60.00,Saturday
141,32028775.505500145
190,0.0
2,7, 1, 7, 0, 5, 0.00,60.00,Saturday
141,33237749.53008573
190,0.0
2,7, 1, 7, 0, 6, 0.00,60.00,Saturday
141,34182177.113946415
190,0.0
2,7, 1, 7, 0, 7, 0.00,60.00,Saturday
141,34732832.057760656
190,0.0
2,7, 1, 7, 0, 8, 0.00,60.00,Saturday
141,35000176.49567407
190,0.0
2,7, 1, 7, 0, 9, 0.00,60.00,Saturday
141,34314365.58994007
190,0.0
2,7, 1, 7, 0,10, 0.00,60.00,Saturday
141,33698825.18036671
190,0.0
2,7, 1, 7, 0,11, 0.00,60.00,Saturday
141,31908045.655194994
190,0.0
2,7, 1, 7, 0,12, 0.00,60.00,Saturday
141,30105434.486305453
190,0.0
2,7, 1, 7, 0,13, 0.00,60.00,Saturday
141,28800582.021000907
190,0.0
2,7, 1, 7, 0,14, 0.00,60.00,Saturday
141,28154421.268179856
190,0.0
2,7, 1, 7, 0,15, 0.00,60.00,Saturday
141,28468696.39413155
190,0.0
2,7, 1, 7, 0,16, 0.00,60.00,Saturday
141,29106839.10401515
190,0.0
2,7, 1, 7, 0,17, 0.00,60.00,Saturday
141,29647170.26186271
190,0.0
2,7, 1, 7, 0,18, 0.00,60.00,Saturday
141,30556663.81636484
190,0.0
2,7, 1, 7, 0,19, 0.00,60.00,Saturday
141,31404151.399547122
190,0.0
2,7, 1, 7, 0,20, 0.00,60.00,Saturday
141,32215147.620722257
190,0.0
2,7, 1, 7, 0,21, 0.00,60.00,Saturday
141,32790732.54639229
190,0.0
2,7, 1, 7, 0,22, 0.00,60.00,Saturday
141,32817032.30197874
190,0.0
2,7, 1, 7, 0,23, 0.00,60.00,Saturday
141,32913049.072147146
190,0.0
2,7, 1, 7, 0,24, 0.00,60.00,Saturday
141,32849031.015185893
190,0.0
2,8, 1, 8, 0, 1, 0.00,60.00,Sunday
141,32300856.401300192
190,0.0
2,8, 1, 8, 0, 2, 0.00,60.00,Sunday
141,31660903.204619743
190,0.0
2,8, 1, 8, 0, 3, 0.00,60.00,Sunday
141,31079529.291816678
190,0.0
2,8, 1, 8, 0, 4, 0.00,60.00,Sunday
141,30256951.926676307
190,0.0
2,8, 1, 8, 0, 5, 0.00,60.00,Sunday
141,29261999.98395192
190,0.0
2,8, 1, 8, 0, 6, 0.00,60.00,Sunday
141,28513517.107174076
190,0.0
2,8, 1, 8, 0, 7, 0.00,60.00,Sunday
141,27941660.320249837
190,0.0
2,8, 1, 8, 0, 8, 0.00,60.00,Sunday
141,27452175.028085016
190,0.0
2,8, 1, 8, 0, 9, 0.00,60.00,Sunday
141,26942974.744085215
190,0.0
2,8, 1, 8, 0,10, 0.00,60.00,Sunday
141,26777968.021515388
190,0.0
2,8, 1, 8, 0,11, 0.00,60.00,Sunday
141,26652872.064458653
190,0.0
2,8, 1, 8, 0,12, 0.00,60.00,Sunday
141,26755479.536532447
190,0.0
2,8, 1, 8, 0,13, 0.00,60.00,Sunday
141,26664166.57093399
190,0.0
2,8, 1, 8, 0,14, 0.00,60.00,Sunday
141,26786227.280454293
190,0.0
2,8, 1, 8, 0,15, 0.00,60.00,Sunday
141,27883383.180278506
190,0.0
2,8, 1, 8, 0,16, 0.00,60.00,Sunday
141,28674554.47879935
190,0.0
2,8, 1, 8, 0,17, 0.00,60.00,Sunday
141,28715848.74548044
190,0.0
2,8, 1, 8, 0,18, 0.00,60.00,Sunday
141,29065354.3511718
190,0.0
2,8, 1, 8, 0,19, 0.00,60.00,Sunday
141,28875033.980004594
190,0.0
2,8, 1, 8, 0,20, 0.00,60.00,Sunday
141,28211506.691264827
190,0.0
2,8, 1, 8, 0,21, 0.00,60.00,Sunday
141,27732972.9387379
190,0.0
2,8, 1, 8, 0,22, 0.00,60.00,Sunday
141,27864649.27409612
190,0.0
2,8, 1, 8, 0,23, 0.00,60.00,Sunday
141,27987833.492402833
190,0.0
2,8, 1, 8, 0,24, 0.00,60.00,Sunday
141,28376541.432197057
190,0.0
2,9, 1, 9, 0, 1, 0.00,60.00,Monday
141,28448194.196033493
190,0.0
2,9, 1, 9, 0, 2, 0.00,60.00,Monday
141,28490025.522751108
190,0.0
2,9, 1, 9, 0, 3, 0.00,60.00,Monday
141,28391487.541933335
190,0.0
2,9, 1, 9, 0, 4, 0.00,60.00,Monday
141,28147960.962424822
190,0.0
2,9, 1, 9, 0, 5, 0.00,60.00,Monday
141,27605339.762721077
190,0.0
2,9, 1, 9, 0, 6, 0.00,60.00,Monday
141,27056859.776154354
190,0.0
2,9, 1, 9, 0, 7, 0.00,60.00,Monday
141,26661377.164794303
190,0.0
2,9, 1, 9, 0, 8, 0.00,60.00,Monday
141,26447594.26857571
190,0.0
2,9, 1, 9, 0, 9, 0.00,60.00,Monday
141,25860523.9767031
190,0.0
2,9, 1, 9, 0,10, 0.00,60.00,Monday
141,24431552.102532413
190,0.0
2,9, 1, 9, 0,11, 0.00,60.00,Monday
141,23215153.09973761
190,0.0
2,9, 1, 9, 0,12, 0.00,60.00,Monday
141,22544563.32288892
190,0.0
2,9, 1, 9, 0,13, 0.00,60.00,Monday
141,21992875.196075957
190,0.0
2,9, 1, 9, 0,14, 0.00,60.00,Monday
141,21593936.47938478
190,0.0
2,9, 1, 9, 0,15, 0.00,60.00,Monday
141,21462282.07654492
190,0.0
2,9, 1, 9, 0,16, 0.00,60.00,Monday
141,21758913.957054757
190,0.0
2,9, 1, 9, 0,17, 0.00,60.00,Monday
141,22739720.908165723
190,0.0
2,9, 1, 9, 0,18, 0.00,60.00,Monday
141,23665148.171187036
190,0.0
2,9, 1, 9, 0,19, 0.00,60.00,Monday
141,23598040.742963277
190,0.0
2,9, 1, 9, 0,20, 0.00,60.00,Monday
141,22321125.428452782
190,0.0
2,9, 1, 9, 0,21, 0.00,60.00,Monday
141,21029893.243191984
190,0.0
2,9, 1, 9, 0,22, 0.00,60.00,Monday
141,20239398.9732102
190,0.0
2,9, 1, 9, 0,23, 0.00,60.00,Monday
141,20094585.426713523
190,0.0
2,9, 1, 9, 0,24, 0.00,60.00,Monday
141,20179237.16507857
190,0.0
2,10, 1,10, 0, 1, 0.00,60.00,Tuesday
141,20539215.261927538
190,0.0
2,10, 1,10, 0, 2, 0.00,60.00,Tuesday
141,20787226.188991755
190,0.0
2,10, 1,10, 0, 3, 0.00,60.00,Tuesday
141,20836246.24325513
190,0.0
2,10, 1,10, 0, 4, 0.00,60.00,Tuesday
141,21241430.88674537
190,0.0
2,10, 1,10, 0, 5, 0.00,60.00,Tuesday
141,21396716.595322788
190,0.0
2,10, 1,10, 0, 6, 0.00,60.00,Tuesday
141,21454751.940230563
190,0.0
2,10, 1,10, 0, 7, 0.00,60.00,Tuesday
141,21522528.96509348
190,0.0
2,10, 1,10, 0, 8, 0.00,60.00,Tuesday
141,21398759.003745876
190,0.0
2,10, 1,10, 0, 9, 0.00,60.00,Tuesday
141,21214891.4061578
190,0.0
2,10, 1,10, 0,10, 0.00,60.00,Tuesday
141,20958370.09886641
190,0.0
2,10, 1,10, 0,11, 0.00,60.00,Tuesday
141,20575204.830097206
190,0.0
2,10, 1,10, 0,12, 0.00,60.00,Tuesday
141,20133840.200384595
190,0.0
2,10, 1,10, 0,13, 0.00,60.00,Tuesday
141,20075592.06460724
190,0.0
2,10, 1,10, 0,14, 0.00,60.00,Tuesday
141,21766035.15853451
190,0.0
2,10, 1,10, 0,15, 0.00,60.00,Tuesday
141,23135032.546183202
190,0.0
2,10, 1,10, 0,16, 0.00,60.00,Tuesday
141,23983084.27551438
190,0.0
2,10, 1,10, 0,17, 0.00,60.00,Tuesday
141,24854344.178404395
190,0.0
2,10, 1,10, 0,18, 0.00,60.00,Tuesday
141,25978514.32759837
190,0.0
2,10, 1,10, 0,19, 0.00,60.00,Tuesday
141,26575866.056744393
190,0.0
2,10, 1,10, 0,20, 0.00,60.00,Tuesday
141,27023333.62065687
190,0.0
2,10, 1,10, 0,21, 0.00,60.00,Tuesday
141,27726672.641562004
190,0.0
2,10, 1,10, 0,22, 0.00,60.00,Tuesday
141,28126767.59390745
190,0.0
2,10, 1,10, 0,23, 0.00,60.00,Tuesday
141,27874926.893526502
190,0.0
2,10, 1,10, 0,24, 0.00,60.00,Tuesday
141,28329603.450315837
190,0.0
2,11, 1,11, 0, 1, 0.00,60.00,Wednesday
141,28397824.889972147
190,0.0
2,11, 1,11, 0, 2, 0.00,60.00,Wednesday
141,28463324.74526353
190,0.0
2,11, 1,11, 0, 3, 0.00,60.00,Wednesday
141,28708042.024786636
190,0.0
2,11, 1,11, 0, 4, 0.00,60.00,Wednesday
141,28346785.7472986
190,0.0
2,11, 1,11, 0, 5, 0.00,60.00,Wednesday
141,28085089.26069742
190,0.0
2,11, 1,11, 0, 6, 0.00,60.00,Wednesday
141,27980628.98729538
190,0.0
2,11, 1,11, 0, 7, 0.00,60.00,Wednesday
141,28069306.520677965
190,0.0
2,11, 1,11, 0, 8, 0.00,60.00,Wednesday
141,28179319.736362666
190,0.0
2,11, 1,11, 0, 9, 0.00,60.00,Wednesday
141,28105784.304343455
190,0.0
2,11, 1,11, 0,10, 0.00,60.00,Wednesday
141,27906565.402024303
190,0.0
2,11, 1,11, 0,11, 0.00,60.00,Wednesday
141,27570313.253413484
190,0.0
2,11, 1,11, 0,12, 0.00,60.00,Wednesday
141,27018814.78309924
190,0.0
2,11, 1,11, 0,13, 0.00,60.00,Wednesday
141,26595367.635234203
190,0.0
2,11, 1,11, 0,14, 0.00,60.00,Wednesday
141,26420352.79682742
190,0.0
2,11, 1,11, 0,15, 0.00,60.00,Wednesday
141,26380923.013051365
190,0.0
2,11, 1,11, 0,16, 0.00,60.00,Wednesday
141,26404210.67720806
190,0.0
2,11, 1,11, 0,17, 0.00,60.00,Wednesday
141,26110935.2674885
190,0.0
2,11, 1,11, 0,18, 0.00,60.00,Wednesday
141,25829640.091123134
190,0.0
2,11, 1,11, 0,19, 0.00,60.00,Wednesday
141,25636115.47259296
190,0.0
2,11, 1,11, 0,20, 0.00,60.00,Wednesday
141,25619316.66189199
190,0.0
2,11, 1,11, 0,21, 0.00,60.00,Wednesday
141,25614021.882366776
190,0.0
2,11, 1,11, 0,22, 0.00,60.00,Wednesday
141,25013283.835529618
190,0.0
2,11, 1,11, 0,23, 0.00,60.00,Wednesday
141,24549349.594613392
190,0.0
2,11, 1,11, 0,24, 0.00,60.00,Wednesday
141,24586092.67175589
190,0.0
2,12, 1,12, 0, 1, 0.00,60.00,Thursday
141,24810342.895859685
190,0.0
2,12, 1,12, 0, 2, 0.00,60.00,Thursday
141,24843621.70582194
190,0.0
2,12, 1,12, 0, 3, 0.00,60.00,Thursday
141,24706247.204562042
190,0.0
2,12, 1,12, 0, 4, 0.00,60.00,Thursday
141,24731337.457462598
190,0.0
2,12, 1,12, 0, 5, 0.00,60.00,Thursday
141,24947218.768011265
190,0.0
2,12, 1,12, 0, 6, 0.00,60.00,Thursday
141,25449987.83229854
190,0.0
2,12, 1,12, 0, 7, 0.00,60.00,Thursday
141,25724202.95392604
190,0.0
2,12, 1,12, 0, 8, 0.00,60.00,Thursday
141,25795291.814445216
190,0.0
2,12, 1,12, 0, 9, 0.00,60.00,Thursday
141,25449990.41948642
190,0.0
2,12, 1,12, 0,10, 0.00,60.00,Thursday
141,24692913.7914365
190,0.0
2,12, 1,12, 0,11, 0.00,60.00,Thursday
141,24116769.925609708
190,0.0
2,12, 1,12, 0,12, 0.00,60.00,Thursday
141,23788524.40152384
190,0.0
2,12, 1,12, 0,13, 0.00,60.00,Thursday
141,23356944.9191292
190,0.0
2,12, 1,12, 0,14, 0.00,60.00,Thursday
141,22890609.36500551
190,0.0
2,12, 1,12, 0,15, 0.00,60.00,Thursday
141,22875108.727173507
190,0.0
2,12, 1,12, 0,16, 0.00,60.00,Thursday
141,23063522.007533386
190,0.0
2,12, 1,12, 0,17, 0.00,60.00,Thursday
141,23980668.17157754
190,0.0
2,12, 1,12, 0,18, 0.00,60.00,Thursday
141,24516603.38124608
190,0.0
2,12, 1,12, 0,19, 0.00,60.00,Thursday
141,24298926.15823664
190,0.0
2,12, 1,12, 0,20, 0.00,60.00,Thursday
141,23789773.249424916
190,0.0
2,12, 1,12, 0,21, 0.00,60.00,Thursday
141,23581123.85603899
190,0.0
2,12, 1,12, 0,22, 0.00,60.00,Thursday
141,23236129.39723324
190,0.0
2,12, 1,12, 0,23, 0.00,60.00,Thursday
141,23106010.13467121
190,0.0
2,12, 1,12, 0,24, 0.00,60.00,Thursday
141,23130061.091961406
190,0.0
2,13, 1,13, 0, 1, 0.00,60.00,Friday
141,22905374.479343675
190,0.0
2,13, 1,13, 0, 2, 0.00,60.00,Friday
141,22699985.09538921
190,0.0
2,13, 1,13, 0, 3, 0.00,60.00,Friday
141,22393567.911993477
190,0.0
2,13, 1,13, 0, 4, 0.00,60.00,Friday
141,22208308.834120695
190,0.0
2,13, 1,13, 0, 5, 0.00,60.00,Friday
141,22191953.20289758
190,0.0
2,13, 1,13, 0, 6, 0.00,60.00,Friday
141,22254451.492949326
190,0.0
2,13, 1,13, 0, 7, 0.00,60.00,Friday
141,22447725.47036248
190,0.0
2,13, 1,13, 0, 8, 0.00,60.00,Friday
141,22461575.625036057
190,0.0
2,13, 1,13, 0, 9, 0.00,60.00,Friday
141,22234113.78177824
190,0.0
2,13, 1,13, 0,10, 0.00,60.00,Friday
141,22806578.969507042
190,0.0
2,13, 1,13, 0,11, 0.00,60.00,Friday
141,23446986.75576808
190,0.0
2,13, 1,13, 0,12, 0.00,60.00,Friday
141,23488146.363238417
190,0.0
2,13, 1,13, 0,13, 0.00,60.00,Friday
141,23563322.253194936
190,0.0
2,13, 1,13, 0,14, 0.00,60.00,Friday
141,23954622.42542059
190,0.0
2,13, 1,13, 0,15, 0.00,60.00,Friday
141,24163433.90139982
190,0.0
2,13, 1,13, 0,16, 0.00,60.00,Friday
141,24074688.259453215
190,0.0
2,13, 1,13, 0,17, 0.00,60.00,Friday
141,23927634.377984647
190,0.0
2,13, 1,13, 0,18, 0.00,60.00,Friday
141,23851752.305234354
190,0.0
2,13, 1,13, 0,19, 0.00,60.00,Friday
141,24217717.500589028
190,0.0
2,13, 1,13, 0,20, 0.00,60.00,Friday
141,24876465.155705214
190,0.0
2,13, 1,13, 0,21, 0.00,60.00,Friday
141,25464697.11558799
190,0.0
2,13, 1,13, 0,22, 0.00,60.00,Friday
141,25834040.298303097
190,0.0
2,13, 1,13, 0,23, 0.00,60.00,Friday
141,25689068.96015915
190,0.0
2,13, 1,13, 0,24, 0.00,60.00,Friday
141,27238886.715076696
190,0.0
2,14, 1,14, 0, 1, 0.00,60.00,Saturday
141,28303750.313107233
190,0.0
2,14, 1,14, 0, 2, 0.00,60.00,Saturday
141,27852001.747935083
190,0.0
2,14, 1,14, 0, 3, 0.00,60.00,Saturday
141,27937795.248129785
190,0.0
2,14, 1,14, 0, 4, 0.00,60.00,Saturday
141,27765332.10433575
190,0.0
2,14, 1,14, 0, 5, 0.00,60.00,Saturday
141,27713435.800961792
190,0.0
2,14, 1,14, 0, 6, 0.00,60.00,Saturday
141,28842520.390403964
190,0.0
2,14, 1,14, 0, 7, 0.00,60.00,Saturday
141,29687820.651138917
190,0.0
2,14, 1,14, 0, 8, 0.00,60.00,Saturday
141,29399289.115916625
190,0.0
2,14, 1,14, 0, 9, 0.00,60.00,Saturday
141,29840516.97538019
190,0.0
2,14, 1,14, 0,10, 0.00,60.00,Saturday
141,30439055.443181694
190,0.0
2,14, 1,14, 0,11, 0.00,60.00,Saturday
141,30173610.292018168
190,0.0
2,14, 1,14, 0,12, 0.00,60.00,Saturday
141,29784363.33048907
190,0.0
2,14, 1,14, 0,13, 0.00,60.00,Saturday
141,29118352.2636457
190,0.0
2,14, 1,14, 0,14, 0.00,60.00,Saturday
141,27781552.300438423
190,0.0
2,14, 1,14, 0,15, 0.00,60.00,Saturday
141,27610704.06704409
190,0.0
2,14, 1,14, 0,16, 0.00,60.00,Saturday
141,27911084.915585242
190,0.0
2,14, 1,14, 0,17, 0.00,60.00,Saturday
141,28448124.29834754
190,0.0
2,14, 1,14, 0,18, 0.00,60.00,Saturday
141,29441500.12088944
190,0.0
2,14, 1,14, 0,19, 0.00,60.00,Saturday
141,29464471.440134726
190,0.0
2,14, 1,14, 0,20, 0.00,60.00,Saturday
141,29597677.460253954
190,0.0
2,14, 1,14, 0,21, 0.00,60.00,Saturday
141,29411390.57979573
190,0.0
2,14, 1,14, 0,22, 0.00,60.00,Saturday
141,29067511.02457269
190,0.0
2,14, 1,14, 0,23, 0.00,60.00,Saturday
141,28819416.74458996
190,0.0
2,14, 1,14, 0,24, 0.00,60.00,Saturday
141,28714779.52770235
190,0.0
2,15, 1,15, 0, 1, 0.00,60.00,Sunday
141,28115873.656073112
190,0.0
2,15, 1,15, 0, 2, 0.00,60.00,Sunday
141,26697411.713153042
190,0.0
2,15, 1,15, 0, 3, 0.00,60.00,Sunday
141,26010940.1336249
190,0.0
2,15, 1,15, 0, 4, 0.00,60.00,Sunday
141,25532367.023019545
190,0.0
2,15, 1,15, 0, 5, 0.00,60.00,Sunday
141,24647324.298248686
190,0.0
2,15, 1,15, 0, 6, 0.00,60.00,Sunday
141,23716938.39512224
190,0.0
2,15, 1,15, 0, 7, 0.00,60.00,Sunday
141,22800824.365650155
190,0.0
2,15, 1,15, 0, 8, 0.00,60.00,Sunday
141,22202783.390466042
190,0.0
2,15, 1,15, 0, 9, 0.00,60.00,Sunday
141,21755657.280201323
190,0.0
2,15, 1,15, 0,10, 0.00,60.00,Sunday
141,21713366.7524245
190,0.0
2,15, 1,15, 0,11, 0.00,60.00,Sunday
141,22236075.81656289
190,0.0
2,15, 1,15, 0,12, 0.00,60.00,Sunday
141,23544525.437065896
190,0.0
2,15, 1,15, 0,13, 0.00,60.00,Sunday
141,24518079.786913835
190,0.0
2,15, 1,15, 0,14, 0.00,60.00,Sunday
141,24935106.877607875
190,0.0
2,15, 1,15, 0,15, 0.00,60.00,Sunday
141,25114128.19903867
190,0.0
2,15, 1,15, 0,16, 0.00,60.00,Sunday
141,24821487.266667645
190,0.0
2,15, 1,15, 0,17, 0.00,60.00,Sunday
141,24624796.742825005
190,0.0
2,15, 1,15, 0,18, 0.00,60.00,Sunday
141,24722737.26412763
190,0.0
2,15, 1,15, 0,19, 0.00,60.00,Sunday
141,24951179.14547916
190,0.0
2,15, 1,15, 0,20, 0.00,60.00,Sunday
141,25239092.92535907
190,0.0
2,15, 1,15, 0,21, 0.00,60.00,Sunday
141,25836648.739017695
190,0.0
2,15, 1,15, 0,22, 0.00,60.00,Sunday
141,26105768.367434286
190,0.0
2,15, 1,15, 0,23, 0.00,60.00,Sunday
141,26139450.318095285
190,0.0
2,15, 1,15, 0,24, 0.00,60.00,Sunday
141,26287379.999259226
190,0.0
2,16, 1,16, 0, 1, 0.00,60.00,Monday
141,26825365.810748775
190,0.0
2,16, 1,16, 0, 2, 0.00,60.00,Monday
141,27327539.742981665
190,0.0
2,16, 1,16, 0, 3, 0.00,60.00,Monday
141,27606210.737904735
190,0.0
2,16, 1,16, 0, 4, 0.00,60.00,Monday
141,27807211.12163684
190,0.0
2,16, 1,16, 0, 5, 0.00,60.00,Monday
141,28111630.620762117
190,0.0
2,16, 1,16, 0, 6, 0.00,60.00,Monday
141,28372121.70176968
190,0.0
2,16, 1,16, 0, 7, 0.00,60.00,Monday
141,28915560.789967526
190,0.0
2,16, 1,16, 0, 8, 0.00,60.00,Monday
141,29425838.42525103
190,0.0
2,16, 1,16, 0, 9, 0.00,60.00,Monday
141,29639008.8566705
190,0.0
2,16, 1,16, 0,10, 0.00,60.00,Monday
141,29635112.297419414
190,0.0
2,16, 1,16, 0,11, 0.00,60.00,Monday
141,28470020.05060666
190,0.0
2,16, 1,16, 0,12, 0.00,60.00,Monday
141,27441712.798047833
190,0.0
2,16, 1,16, 0,13, 0.00,60.00,Monday
141,26644646.31826652
190,0.0
2,16, 1,16, 0,14, 0.00,60.00,Monday
141,26120291.14444328
190,0.0
2,16, 1,16, 0,15, 0.00,60.00,Monday
141,26072319.387286924
190,0.0
2,16, 1,16, 0,16, 0.00,60.00,Monday
141,26317850.015755747
190,0.0
2,16, 1,16, 0,17, 0.00,60.00,Monday
141,26901013.48313305
190,0.0
2,16, 1,16, 0,18, 0.00,60.00,Monday
141,28004187.86659024
190,0.0
2,16, 1,16, 0,19, 0.00,60.00,Monday
141,29161048.961243723
190,0.0
2,16, 1,16, 0,20, 0.00,60.00,Monday
141,29747133.483293265
190,0.0
2,16, 1,16, 0,21, 0.00,60.00,Monday
141,30208237.102514178
190,0.0
2,16, 1,16, 0,22, 0.00,60.00,Monday
141,30625106.921006575
190,0.0
2,16, 1,16, 0,23, 0.00,60.00,Monday
141,31255003.43327829
190,0.0
2,16, 1,16, 0,24, 0.00,60.00,Monday
141,31389081.176445164
190,0.0
2,17, 1,17, 0, 1, 0.00,60.00,Tuesday
141,31570285.264986917
190,0.0
2,17, 1,17, 0, 2, 0.00,60.00,Tuesday
141,32322692.1154687
190,0.0
2,17, 1,17, 0, 3, 0.00,60.00,Tuesday
141,32943697.26229239
190,0.0
2,17, 1,17, 0, 4, 0.00,60.00,Tuesday
141,33467757.874251388
190,0.0
2,17, 1,17, 0, 5, 0.00,60.00,Tuesday
141,34053378.255830064
190,0.0
2,17, 1,17, 0, 6, 0.00,60.00,Tuesday
141,34641482.09487433
190,0.0
2,17, 1,17, 0, 7, 0.00,60.00,Tuesday
141,34981607.52940898
190,0.0
2,17, 1,17, 0, 8, 0.00,60.00,Tuesday
141,35149631.50210454
190,0.0
2,17, 1,17, 0, 9, 0.00,60.00,Tuesday
141,35160213.170010135
190,0.0
2,17, 1,17, 0,10, 0.00,60.00,Tuesday
141,33807615.9705375
190,0.0
2,17, 1,17, 0,11, 0.00,60.00,Tuesday
141,31827731.065993145
190,0.0
2,17, 1,17, 0,12, 0.00,60.00,Tuesday
141,30121945.210816644
190,0.0
2,17, 1,17, 0,13, 0.00,60.00,Tuesday
141,29130647.932212282
190,0.0
2,17, 1,17, 0,14, 0.00,60.00,Tuesday
141,28924868.92890636
190,0.0
2,17, 1,17, 0,15, 0.00,60.00,Tuesday
141,29269815.955188427
190,0.0
2,17, 1,17, 0,16, 0.00,60.00,Tuesday
141,30258964.823440127
190,0.0
2,17, 1,17, 0,17, 0.00,60.00,Tuesday
141,31059776.918022208
190,0.0
2,17, 1,17, 0,18, 0.00,60.00,Tuesday
141,31186158.043764543
190,0.0
2,17, 1,17, 0,19, 0.00,60.00,Tuesday
141,31160544.542599406
190,0.0
2,17, 1,17, 0,20, 0.00,60.00,Tuesday
141,31365952.120767236
190,0.0
2,17, 1,17, 0,21, 0.00,60.00,Tuesday
141,31684333.21799177
190,0.0
2,17, 1,17, 0,22, 0.00,60.00,Tuesday
141,31749762.487866793
190,0.0
2,17, 1,17, 0,23, 0.00,60.00,Tuesday
141,31798120.834002268
190,0.0
2,17, 1,17, 0,24, 0.00,60.00,Tuesday
141,32206822.942988224
190,0.0
2,18, 1,18, 0, 1, 0.00,60.00,Wednesday
141,32459827.56871498
190,0.0
2,18, 1,18, 0, 2, 0.00,60.00,Wednesday
141,32635315.569541316
190,0.0
2,18, 1,18, 0, 3, 0.00,60.00,Wednesday
141,32677238.57156912
190,0.0
2,18, 1,18, 0, 4, 0.00,60.00,Wednesday
141,32624119.039580513
190,0.0
2,18, 1,18, 0, 5, 0.00,60.00,Wednesday
141,32630260.33248712
190,0.0
2,18, 1,18, 0, 6, 0.00,60.00,Wednesday
141,32716628.686944388
190,0.0
2,18, 1,18, 0, 7, 0.00,60.00,Wednesday
141,33353190.172327638
190,0.0
2,18, 1,18, 0, 8, 0.00,60.00,Wednesday
141,33526920.876097653
190,0.0
2,18, 1,18, 0, 9, 0.00,60.00,Wednesday
141,33610638.316938
190,0.0
2,18, 1,18, 0,10, 0.00,60.00,Wednesday
141,33549875.104336474
190,0.0
2,18, 1,18, 0,11, 0.00,60.00,Wednesday
141,32893232.40853408
190,0.0
2,18, 1,18, 0,12, 0.00,60.00,Wednesday
141,32389943.469804525
190,0.0
2,18, 1,18, 0,13, 0.00,60.00,Wednesday
141,32606953.592444465
190,0.0
2,18, 1,18, 0,14, 0.00,60.00,Wednesday
141,33091145.19512353
190,0.0
2,18, 1,18, 0,15, 0.00,60.00,Wednesday
141,33356363.434745647
190,0.0
2,18, 1,18, 0,16, 0.00,60.00,Wednesday
141,33921970.40230367
190,0.0
2,18, 1,18, 0,17, 0.00,60.00,Wednesday
141,34210422.39635599
190,0.0
2,18, 1,18, 0,18, 0.00,60.00,Wednesday
141,34004764.19961931
190,0.0
2,18, 1,18, 0,19, 0.00,60.00,Wednesday
141,33907616.46515536
190,0.0
2,18, 1,18, 0,20, 0.00,60.00,Wednesday
141,34010897.02143687
190,0.0
2,18, 1,18, 0,21, 0.00,60.00,Wednesday
141,34084740.324858174
190,0.0
2,18, 1,18, 0,22, 0.00,60.00,Wednesday
141,34267614.26723583
190,0.0
2,18, 1,18, 0,23, 0.00,60.00,Wednesday
141,34400427.1373333
190,0.0
2,18, 1,18, 0,24, 0.00,60.00,Wednesday
141,34577645.48988581
190,0.0
2,19, 1,19, 0, 1, 0.00,60.00,Thursday
141,34375659.92562158
190,0.0