Program Version,EnergyPlus, Version 24.2.0-94a887817b, YMD=2025.04.24 13:22
1,5,Environment Title[],Latitude[deg],Longitude[deg],Time Zone[],Elevation[m]
2,8,Day of Simulation[],Month[],Day of Month[],DST Indicator[1=yes 0=no],Hour[],StartMinute[],EndMinute[],DayType
3,5,Cumulative Day of Simulation[],Month[],Day of Month[],DST Indicator[1=yes 0=no],DayType  ! When Daily Report Variables Requested
4,2,Cumulative Days of Simulation[],Month[]  ! When Monthly Report Variables Requested
5,1,Cumulative Days of Simulation[] ! When Run Period Report Variables Requested
6,1,Calendar Year of Simulation[] ! When Annual Report Variables Requested
141,1,ZONE_0599100000404020 IDEAL LOADS AIR SYSTEM,Zone Ideal Loads Supply Air Total Heating Energy [J] !Hourly
190,1,ZONE_0599100000404020 IDEAL LOADS AIR SYSTEM,Zone Ideal Loads Supply Air Total Cooling Energy [J] !Hourly
End of Data Dictionary
1,RUN PERIOD 1,  51.96,   4.45,   1.00,  -4.50
2,1, 1, 1, 0, 1, 0.00,60.00,Sunday
141,27697409.272278246
190,0.0
2,1, 1, 1, 0, 2, 0.00,60.00,Sunday
141,28693062.50786717
190,0.0
2,1, 1, 1, 0, 3, 0.00,60.00,Sunday
141,28680438.176800802
190,0.0
2,1, 1, 1, 0, 4, 0.00,60.00,Sunday
141,29413627.281095445
190,0.0
2,1, 1, 1, 0, 5, 0.00,60.00,Sunday
141,29911559.44182046
190,0.0
2,1, 1, 1, 0, 6, 0.00,60.00,Sunday
141,29962866.992849898
190,0.0
2,1, 1, 1, 0, 7, 0.00,60.00,Sunday
141,30047493.168626286
190,0.0
2,1, 1, 1, 0, 8, 0.00,60.00,Sunday
141,29975114.15292014
190,0.0
2,1, 1, 1, 0, 9, 0.00,60.00,Sunday
141,29910579.355366997
190,0.0
2,1, 1, 1, 0,10, 0.00,60.00,Sunday
141,29667251.955199726
190,0.0
2,1, 1, 1, 0,11, 0.00,60.00,Sunday
141,29048501.659534436
190,0.0
2,1, 1, 1, 0,12, 0.00,60.00,Sunday
141,28050157.431303315
190,0.0
2,1, 1, 1, 0,13, 0.00,60.00,Sunday
141,27558754.07676568
190,0.0
2,1, 1, 1, 0,14, 0.00,60.00,Sunday
141,26882911.41074314
190,0.0
2,1, 1, 1, 0,15, 0.00,60.00,Sunday
141,26414566.289391812
190,0.0
2,1, 1, 1, 0,16, 0.00,60.00,Sunday
141,26873143.558914103
190,0.0
2,1, 1, 1, 0,17, 0.00,60.00,Sunday
141,27451461.966212288
190,0.0
2,1, 1, 1, 0,18, 0.00,60.00,Sunday
141,27637645.62648698
190,0.0
2,1, 1, 1, 0,19, 0.00,60.00,Sunday
141,27801731.755705502
190,0.0
2,1, 1, 1, 0,20, 0.00,60.00,Sunday
141,27774446.204689935
190,0.0
2,1, 1, 1, 0,21, 0.00,60.00,Sunday
141,27682029.61089504
190,0.0
2,1, 1, 1, 0,22, 0.00,60.00,Sunday
141,27746433.047039356
190,0.0
2,1, 1, 1, 0,23, 0.00,60.00,Sunday
141,27053364.434478767
190,0.0
2,1, 1, 1, 0,24, 0.00,60.00,Sunday
141,26537779.01888234
190,0.0
2,2, 1, 2, 0, 1, 0.00,60.00,Monday
141,26628729.029888865
190,0.0
2,2, 1, 2, 0, 2, 0.00,60.00,Monday
141,25927702.861128673
190,0.0
2,2, 1, 2, 0, 3, 0.00,60.00,Monday
141,25388901.371990673
190,0.0
2,2, 1, 2, 0, 4, 0.00,60.00,Monday
141,24843391.58833684
190,0.0
2,2, 1, 2, 0, 5, 0.00,60.00,Monday
141,23652447.512683034
190,0.0
2,2, 1, 2, 0, 6, 0.00,60.00,Monday
141,23086846.21211509
190,0.0
2,2, 1, 2, 0, 7, 0.00,60.00,Monday
141,22200111.28027473
190,0.0
2,2, 1, 2, 0, 8, 0.00,60.00,Monday
141,21121094.551070526
190,0.0
2,2, 1, 2, 0, 9, 0.00,60.00,Monday
141,21465491.15958975
190,0.0
2,2, 1, 2, 0,10, 0.00,60.00,Monday
141,22286387.732720453
190,0.0
2,2, 1, 2, 0,11, 0.00,60.00,Monday
141,22850218.645710513
190,0.0
2,2, 1, 2, 0,12, 0.00,60.00,Monday
141,22402778.244767264
190,0.0
2,2, 1, 2, 0,13, 0.00,60.00,Monday
141,22226590.673377723
190,0.0
2,2, 1, 2, 0,14, 0.00,60.00,Monday
141,22800424.561024223
190,0.0
2,2, 1, 2, 0,15, 0.00,60.00,Monday
141,23046632.72227659
190,0.0
2,2, 1, 2, 0,16, 0.00,60.00,Monday
141,23572124.403328102
190,0.0
2,2, 1, 2, 0,17, 0.00,60.00,Monday
141,24079699.94192873
190,0.0
2,2, 1, 2, 0,18, 0.00,60.00,Monday
141,24158310.26277248
190,0.0
2,2, 1, 2, 0,19, 0.00,60.00,Monday
141,24708257.63472887
190,0.0
2,2, 1, 2, 0,20, 0.00,60.00,Monday
141,25206870.667945877
190,0.0
2,2, 1, 2, 0,21, 0.00,60.00,Monday
141,25263677.571068622
190,0.0
2,2, 1, 2, 0,22, 0.00,60.00,Monday
141,25216882.33317929
190,0.0
2,2, 1, 2, 0,23, 0.00,60.00,Monday
141,25204850.81959451
190,0.0
2,2, 1, 2, 0,24, 0.00,60.00,Monday
141,25203966.556382645
190,0.0
2,3, 1, 3, 0, 1, 0.00,60.00,Tuesday
141,25221576.70648799
190,0.0
2,3, 1, 3, 0, 2, 0.00,60.00,Tuesday
141,25191526.995263316
190,0.0
2,3, 1, 3, 0, 3, 0.00,60.00,Tuesday
141,25146443.85551866
190,0.0
2,3, 1, 3, 0, 4, 0.00,60.00,Tuesday
141,25211016.151041493
190,0.0
2,3, 1, 3, 0, 5, 0.00,60.00,Tuesday
141,25854836.89357903
190,0.0
2,3, 1, 3, 0, 6, 0.00,60.00,Tuesday
141,26266646.290569846
190,0.0
2,3, 1, 3, 0, 7, 0.00,60.00,Tuesday
141,26457269.739563573
190,0.0
2,3, 1, 3, 0, 8, 0.00,60.00,Tuesday
141,26386119.48892891
190,0.0
2,3, 1, 3, 0, 9, 0.00,60.00,Tuesday
141,26916150.882574044
190,0.0
2,3, 1, 3, 0,10, 0.00,60.00,Tuesday
141,27167715.893800244
190,0.0
2,3, 1, 3, 0,11, 0.00,60.00,Tuesday
141,27227089.64361363
190,0.0
2,3, 1, 3, 0,12, 0.00,60.00,Tuesday
141,27385962.21071306
190,0.0
2,3, 1, 3, 0,13, 0.00,60.00,Tuesday
141,28212849.945339717
190,0.0
2,3, 1, 3, 0,14, 0.00,60.00,Tuesday
141,28665763.2949538
190,0.0
2,3, 1, 3, 0,15, 0.00,60.00,Tuesday
141,28563330.641266234
190,0.0
2,3, 1, 3, 0,16, 0.00,60.00,Tuesday
141,28471349.189778857
190,0.0
2,3, 1, 3, 0,17, 0.00,60.00,Tuesday
141,28498234.485608768
190,0.0
2,3, 1, 3, 0,18, 0.00,60.00,Tuesday
141,28565864.110082194
190,0.0
2,3, 1, 3, 0,19, 0.00,60.00,Tuesday
141,28432483.0776088
190,0.0
2,3, 1, 3, 0,20, 0.00,60.00,Tuesday
141,27779956.618030354
190,0.0
2,3, 1, 3, 0,21, 0.00,60.00,Tuesday
141,26016207.50802528
190,0.0
2,3, 1, 3, 0,22, 0.00,60.00,Tuesday
141,25070054.76716836
190,0.0
2,3, 1, 3, 0,23, 0.00,60.00,Tuesday
141,25745033.62539883
190,0.0
2,3, 1, 3, 0,24, 0.00,60.00,Tuesday
141,26896514.22439032
190,0.0
2,4, 1, 4, 0, 1, 0.00,60.00,Wednesday
141,27470533.00150888
190,0.0
2,4, 1, 4, 0, 2, 0.00,60.00,Wednesday
141,27380638.49109599
190,0.0
2,4, 1, 4, 0, 3, 0.00,60.00,Wednesday
141,27207339.38665186
190,0.0
2,4, 1, 4, 0, 4, 0.00,60.00,Wednesday
141,27401147.927213844
190,0.0
2,4, 1, 4, 0, 5, 0.00,60.00,Wednesday
141,28164684.77608196
190,0.0
2,4, 1, 4, 0, 6, 0.00,60.00,Wednesday
141,27962426.921573132
190,0.0
2,4, 1, 4, 0, 7, 0.00,60.00,Wednesday
141,27923296.37389994
190,0.0
2,4, 1, 4, 0, 8, 0.00,60.00,Wednesday
141,28227930.06290415
190,0.0
2,4, 1, 4, 0, 9, 0.00,60.00,Wednesday
141,28447542.898632642
190,0.0
2,4, 1, 4, 0,10, 0.00,60.00,Wednesday
141,28624930.36751473
190,0.0
2,4, 1, 4, 0,11, 0.00,60.00,Wednesday
141,27240325.67886029
190,0.0
2,4, 1, 4, 0,12, 0.00,60.00,Wednesday
141,24897662.69904585
190,0.0
2,4, 1, 4, 0,13, 0.00,60.00,Wednesday
141,24268304.18474142
190,0.0
2,4, 1, 4, 0,14, 0.00,60.00,Wednesday
141,24184521.74228075
190,0.0
2,4, 1, 4, 0,15, 0.00,60.00,Wednesday
141,23962063.129473392
190,0.0
2,4, 1, 4, 0,16, 0.00,60.00,Wednesday
141,24927248.61333689
190,0.0
2,4, 1, 4, 0,17, 0.00,60.00,Wednesday
141,26653984.83083718
190,0.0
2,4, 1, 4, 0,18, 0.00,60.00,Wednesday
141,28149547.628297
190,0.0
2,4, 1, 4, 0,19, 0.00,60.00,Wednesday
141,29667601.89139116
190,0.0
2,4, 1, 4, 0,20, 0.00,60.00,Wednesday
141,30459695.17948936
190,0.0
2,4, 1, 4, 0,21, 0.00,60.00,Wednesday
141,30809928.94420859
190,0.0
2,4, 1, 4, 0,22, 0.00,60.00,Wednesday
141,31529984.71619123
190,0.0
2,4, 1, 4, 0,23, 0.00,60.00,Wednesday
141,31185966.13743227
190,0.0
2,4, 1, 4, 0,24, 0.00,60.00,Wednesday
141,30618309.50310161
190,0.0
2,5, 1, 5, 0, 1, 0.00,60.00,Thursday
141,30785170.46653799
190,0.0
2,5, 1, 5, 0, 2, 0.00,60.00,Thursday
141,30383530.42253208
190,0.0
2,5, 1, 5, 0, 3, 0.00,60.00,Thursday
141,29997658.802292265
190,0.0
2,5, 1, 5, 0, 4, 0.00,60.00,Thursday
141,30050013.27203986
190,0.0
2,5, 1, 5, 0, 5, 0.00,60.00,Thursday
141,29626570.666688237
190,0.0
2,5, 1, 5, 0, 6, 0.00,60.00,Thursday
141,29448100.16684668
190,0.0
2,5, 1, 5, 0, 7, 0.00,60.00,Thursday
141,29723446.03839947
190,0.0
2,5, 1, 5, 0, 8, 0.00,60.00,Thursday
141,29969608.027194344
190,0.0
2,5, 1, 5, 0, 9, 0.00,60.00,Thursday
141,30063607.9569029
190,0.0
2,5, 1, 5, 0,10, 0.00,60.00,Thursday
141,30525356.379023362
190,0.0
2,5, 1, 5, 0,11, 0.00,60.00,Thursday
141,30413611.951042134
190,0.0
2,5, 1, 5, 0,12, 0.00,60.00,Thursday
141,29416245.966463506
190,0.0
2,5, 1, 5, 0,13, 0.00,60.00,Thursday
141,29071606.286067836
190,0.0
2,5, 1, 5, 0,14, 0.00,60.00,Thursday
141,28358421.463982757
190,0.0
2,5, 1, 5, 0,15, 0.00,60.00,Thursday
141,27794314.10039369
190,0.0
2,5, 1, 5, 0,16, 0.00,60.00,Thursday
141,28270426.639552265
190,0.0
2,5, 1, 5, 0,17, 0.00,60.00,Thursday
141,28161344.028156087
190,0.0
2,5, 1, 5, 0,18, 0.00,60.00,Thursday
141,27857645.985829093
190,0.0
2,5, 1, 5, 0,19, 0.00,60.00,Thursday
141,28039197.024579942
190,0.0
2,5, 1, 5, 0,20, 0.00,60.00,Thursday
141,28011359.998602383
190,0.0
2,5, 1, 5, 0,21, 0.00,60.00,Thursday
141,27912223.14290229
190,0.0
2,5, 1, 5, 0,22, 0.00,60.00,Thursday
141,27940268.04469369
190,0.0
2,5, 1, 5, 0,23, 0.00,60.00,Thursday
141,28099264.499761164
190,0.0
2,5, 1, 5, 0,24, 0.00,60.00,Thursday
141,28271595.069032073
190,0.0
2,6, 1, 6, 0, 1, 0.00,60.00,Friday
141,28387664.250951845
190,0.0
2,6, 1, 6, 0, 2, 0.00,60.00,Friday
141,28498520.34391005
190,0.0
2,6, 1, 6, 0, 3, 0.00,60.00,Friday
141,29173051.934977822
190,0.0
2,6, 1, 6, 0, 4, 0.00,60.00,Friday
141,29826026.72198714
190,0.0
2,6, 1, 6, 0, 5, 0.00,60.00,Friday
141,30169015.986933194
190,0.0
2,6, 1, 6, 0, 6, 0.00,60.00,Friday
141,30584823.662809417
190,0.0
2,6, 1, 6, 0, 7, 0.00,60.00,Friday
141,31196146.760238677
190,0.0
2,6, 1, 6, 0, 8, 0.00,60.00,Friday
141,31773341.380913027
190,0.0
2,6, 1, 6, 0, 9, 0.00,60.00,Friday
141,32467117.889215104
190,0.0
2,6, 1, 6, 0,10, 0.00,60.00,Friday
141,32878480.507001854
190,0.0
2,6, 1, 6, 0,11, 0.00,60.00,Friday
141,32416757.99001009
190,0.0
2,6, 1, 6, 0,12, 0.00,60.00,Friday
141,31695359.435540624
190,0.0
2,6, 1, 6, 0,13, 0.00,60.00,Friday
141,31353017.404662184
190,0.0
2,6, 1, 6, 0,14, 0.00,60.00,Friday
141,31214551.902889892
190,0.0
2,6, 1, 6, 0,15, 0.00,60.00,Friday
141,31020766.000476435
190,0.0
2,6, 1, 6, 0,16, 0.00,60.00,Friday
141,30569730.444151983
190,0.0
2,6, 1, 6, 0,17, 0.00,60.00,Friday
141,30103747.74989863
190,0.0
2,6, 1, 6, 0,18, 0.00,60.00,Friday
141,29882718.409703065
190,0.0
2,6, 1, 6, 0,19, 0.00,60.00,Friday
141,29624185.220342558
190,0.0
2,6, 1, 6, 0,20, 0.00,60.00,Friday
141,28991829.31415652
190,0.0
2,6, 1, 6, 0,21, 0.00,60.00,Friday
141,27406066.36507528
190,0.0
2,6, 1, 6, 0,22, 0.00,60.00,Friday
141,25507607.264245734
190,0.0
2,6, 1, 6, 0,23, 0.00,60.00,Friday
141,24660199.125837956
190,0.0
2,6, 1, 6, 0,24, 0.00,60.00,Friday
141,24849753.463232823
190,0.0
2,7, 1, 7, 0, 1, 0.00,60.00,Saturday
141,26357430.27344244
190,0.0
2,7, 1, 7, 0, 2, 0.00,60.00,Saturday
141,27859883.77061519
190,0.0
2,7, 1, 7, 0, 3, 0.00,60.00,Saturday
141,27646891.790427737
190,0.0
2,7, 1, 7, 0, 4, 0.00,60.00,Saturday
141,27766774.87416799
190,0.0
2,7, 1, 7, 0, 5, 0.00,60.00,Saturday
141,28790943.61662043
190,0.0
2,7, 1, 7, 0, 6, 0.00,60.00,Saturday
141,29591007.76653768
190,0.0
2,7, 1, 7, 0, 7, 0.00,60.00,Saturday
141,30057511.301822737
190,0.0
2,7, 1, 7, 0, 8, 0.00,60.00,Saturday
141,30284014.19725249
190,0.0
2,7, 1, 7, 0, 9, 0.00,60.00,Saturday
141,29703155.430321
190,0.0
2,7, 1, 7, 0,10, 0.00,60.00,Saturday
141,29181777.721972264
190,0.0
2,7, 1, 7, 0,11, 0.00,60.00,Saturday
141,27664933.96279375
190,0.0
2,7, 1, 7, 0,12, 0.00,60.00,Saturday
141,26138035.689684313
190,0.0
2,7, 1, 7, 0,13, 0.00,60.00,Saturday
141,25032712.986906428
190,0.0
2,7, 1, 7, 0,14, 0.00,60.00,Saturday
141,24485285.24197531
190,0.0
2,7, 1, 7, 0,15, 0.00,60.00,Saturday
141,24751341.72763215
190,0.0
2,7, 1, 7, 0,16, 0.00,60.00,Saturday
141,25291722.691683747
190,0.0
2,7, 1, 7, 0,17, 0.00,60.00,Saturday
141,25749282.69814571
190,0.0
2,7, 1, 7, 0,18, 0.00,60.00,Saturday
141,26519566.946782026
190,0.0
2,7, 1, 7, 0,19, 0.00,60.00,Saturday
141,27237386.92225942
190,0.0
2,7, 1, 7, 0,20, 0.00,60.00,Saturday
141,27924352.35592251
190,0.0
2,7, 1, 7, 0,21, 0.00,60.00,Saturday
141,28411959.88662908
190,0.0
2,7, 1, 7, 0,22, 0.00,60.00,Saturday
141,28434324.805850018
190,0.0
2,7, 1, 7, 0,23, 0.00,60.00,Saturday
141,28515700.89482354
190,0.0
2,7, 1, 7, 0,24, 0.00,60.00,Saturday
141,28461445.462706335
190,0.0
2,8, 1, 8, 0, 1, 0.00,60.00,Sunday
141,27996991.02648674
190,0.0
2,8, 1, 8, 0, 2, 0.00,60.00,Sunday
141,27454657.77082045
190,0.0
2,8, 1, 8, 0, 3, 0.00,60.00,Sunday
141,26961787.68895866
190,0.0
2,8, 1, 8, 0, 4, 0.00,60.00,Sunday
141,26264465.674435705
190,0.0
2,8, 1, 8, 0, 5, 0.00,60.00,Sunday
141,25421001.901067585
190,0.0
2,8, 1, 8, 0, 6, 0.00,60.00,Sunday
141,24786177.53425326
190,0.0
2,8, 1, 8, 0, 7, 0.00,60.00,Sunday
141,24300860.509100344
190,0.0
2,8, 1, 8, 0, 8, 0.00,60.00,Sunday
141,23885244.225415837
190,0.0
2,8, 1, 8, 0, 9, 0.00,60.00,Sunday
141,23452887.92713781
190,0.0
2,8, 1, 8, 0,10, 0.00,60.00,Sunday
141,23312046.600516442
190,0.0
2,8, 1, 8, 0,11, 0.00,60.00,Sunday
141,23205011.853291683
190,0.0
2,8, 1, 8, 0,12, 0.00,60.00,Sunday
141,23290858.53073084
190,0.0
2,8, 1, 8, 0,13, 0.00,60.00,Sunday
141,23212479.132207304
190,0.0
2,8, 1, 8, 0,14, 0.00,60.00,Sunday
141,23314855.39994118
190,0.0
2,8, 1, 8, 0,15, 0.00,60.00,Sunday
141,24243164.616764188
190,0.0
2,8, 1, 8, 0,16, 0.00,60.00,Sunday
141,24912324.446937907
190,0.0
2,8, 1, 8, 0,17, 0.00,60.00,Sunday
141,24946348.439488117
190,0.0
2,8, 1, 8, 0,18, 0.00,60.00,Sunday
141,25241428.171343803
190,0.0
2,8, 1, 8, 0,19, 0.00,60.00,Sunday
141,25079263.12352203
190,0.0
2,8, 1, 8, 0,20, 0.00,60.00,Sunday
141,24516268.385712046
190,0.0
2,8, 1, 8, 0,21, 0.00,60.00,Sunday
141,24109930.73644315
190,0.0
2,8, 1, 8, 0,22, 0.00,60.00,Sunday
141,24220401.50712614
190,0.0
2,8, 1, 8, 0,23, 0.00,60.00,Sunday
141,24323634.330694728
190,0.0
2,8, 1, 8, 0,24, 0.00,60.00,Sunday
141,24651719.72330583
190,0.0
2,9, 1, 9, 0, 1, 0.00,60.00,Monday
141,24711214.386768676
190,0.0
2,9, 1, 9, 0, 2, 0.00,60.00,Monday
141,24745410.38282708
190,0.0
2,9, 1, 9, 0, 3, 0.00,60.00,Monday
141,24660680.122344278
190,0.0
2,9, 1, 9, 0, 4, 0.00,60.00,Monday
141,24453118.888821412
190,0.0
2,9, 1, 9, 0, 5, 0.00,60.00,Monday
141,23992206.53813664
190,0.0
2,9, 1, 9, 0, 6, 0.00,60.00,Monday
141,23526322.20479117
190,0.0
2,9, 1, 9, 0, 7, 0.00,60.00,Monday
141,23190024.942775615
190,0.0
2,9, 1, 9, 0, 8, 0.00,60.00,Monday
141,23007632.720073696
190,0.0
2,9, 1, 9, 0, 9, 0.00,60.00,Monday
141,22509076.84508048
190,0.0
2,9, 1, 9, 0,10, 0.00,60.00,Monday
141,21297445.6293182
190,0.0
2,9, 1, 9, 0,11, 0.00,60.00,Monday
141,20265884.65527267
190,0.0
2,9, 1, 9, 0,12, 0.00,60.00,Monday
141,19696648.15533049
190,0.0
2,9, 1, 9, 0,13, 0.00,60.00,Monday
141,19228145.572583735
190,0.0
2,9, 1, 9, 0,14, 0.00,60.00,Monday
141,18889045.08165596
190,0.0
2,9, 1, 9, 0,15, 0.00,60.00,Monday
141,18776355.113902256
190,0.0
2,9, 1, 9, 0,16, 0.00,60.00,Monday
141,19026440.054553982
190,0.0
2,9, 1, 9, 0,17, 0.00,60.00,Monday
141,19856032.025434956
190,0.0
2,9, 1, 9, 0,18, 0.00,60.00,Monday
141,20638719.315508213
190,0.0
2,9, 1, 9, 0,19, 0.00,60.00,Monday
141,20580721.098465633
190,0.0
2,9, 1, 9, 0,20, 0.00,60.00,Monday
141,19497996.39926687
190,0.0
2,9, 1, 9, 0,21, 0.00,60.00,Monday
141,18403117.152100474
190,0.0
2,9, 1, 9, 0,22, 0.00,60.00,Monday
141,17732325.435460895
190,0.0
2,9, 1, 9, 0,23, 0.00,60.00,Monday
141,17608379.43278404
190,0.0
2,9, 1, 9, 0,24, 0.00,60.00,Monday
141,17678737.40352713
190,0.0
2,10, 1,10, 0, 1, 0.00,60.00,Tuesday
141,17982239.23369079
190,0.0
2,10, 1,10, 0, 2, 0.00,60.00,Tuesday
141,18190844.003564395
190,0.0
2,10, 1,10, 0, 3, 0.00,60.00,Tuesday
141,18230840.709613755
190,0.0
2,10, 1,10, 0, 4, 0.00,60.00,Tuesday
141,18572445.106319934
190,0.0
2,10, 1,10, 0, 5, 0.00,60.00,Tuesday
141,18702317.96694619
190,0.0
2,10, 1,10, 0, 6, 0.00,60.00,Tuesday
141,18749749.15475577
190,0.0
2,10, 1,10, 0, 7, 0.00,60.00,Tuesday
141,18805356.482793182
190,0.0
2,10, 1,10, 0, 8, 0.00,60.00,Tuesday
141,18698643.108830936
190,0.0
2,10, 1,10, 0, 9, 0.00,60.00,Tuesday
141,18540942.04503312
190,0.0
2,10, 1,10, 0,10, 0.00,60.00,Tuesday
141,18321614.41533849
190,0.0
2,10, 1,10, 0,11, 0.00,60.00,Tuesday
141,17994928.111169815
190,0.0
2,10, 1,10, 0,12, 0.00,60.00,Tuesday
141,17618855.472235784
190,0.0
2,10, 1,10, 0,13, 0.00,60.00,Tuesday
141,17567193.293765236
190,0.0
2,10, 1,10, 0,14, 0.00,60.00,Tuesday
141,18996588.881082058
190,0.0
2,10, 1,10, 0,15, 0.00,60.00,Tuesday
141,20153638.407216787
190,0.0
2,10, 1,10, 0,16, 0.00,60.00,Tuesday
141,20869371.4750728
190,0.0
2,10, 1,10, 0,17, 0.00,60.00,Tuesday
141,21604694.165276855
190,0.0
2,10, 1,10, 0,18, 0.00,60.00,Tuesday
141,22554171.66262114
190,0.0
2,10, 1,10, 0,19, 0.00,60.00,Tuesday
141,23057379.918823
190,0.0
2,10, 1,10, 0,20, 0.00,60.00,Tuesday
141,23433590.44108985
190,0.0
2,10, 1,10, 0,21, 0.00,60.00,Tuesday
141,24026487.39393775
190,0.0
2,10, 1,10, 0,22, 0.00,60.00,Tuesday
141,24362509.382224537
190,0.0
2,10, 1,10, 0,23, 0.00,60.00,Tuesday
141,24146326.975491766
190,0.0
2,10, 1,10, 0,24, 0.00,60.00,Tuesday
141,24528568.054366406
190,0.0
2,11, 1,11, 0, 1, 0.00,60.00,Wednesday
141,24583503.67297939
190,0.0
2,11, 1,11, 0, 2, 0.00,60.00,Wednesday
141,24636180.846380845
190,0.0
2,11, 1,11, 0, 3, 0.00,60.00,Wednesday
141,24840729.623934045
190,0.0
2,11, 1,11, 0, 4, 0.00,60.00,Wednesday
141,24532121.6822516
190,0.0
2,11, 1,11, 0, 5, 0.00,60.00,Wednesday
141,24307974.959061325
190,0.0
2,11, 1,11, 0, 6, 0.00,60.00,Wednesday
141,24217170.616121978
190,0.0
2,11, 1,11, 0, 7, 0.00,60.00,Wednesday
141,24290143.90331596
190,0.0
2,11, 1,11, 0, 8, 0.00,60.00,Wednesday
141,24381400.63609425
190,0.0
2,11, 1,11, 0, 9, 0.00,60.00,Wednesday
141,24317420.625406973
190,0.0
2,11, 1,11, 0,10, 0.00,60.00,Wednesday
141,24147226.81321012
190,0.0
2,11, 1,11, 0,11, 0.00,60.00,Wednesday
141,23861210.73778688
190,0.0
2,11, 1,11, 0,12, 0.00,60.00,Wednesday
141,23393124.666559897
190,0.0
2,11, 1,11, 0,13, 0.00,60.00,Wednesday
141,23033735.938735455
190,0.0
2,11, 1,11, 0,14, 0.00,60.00,Wednesday
141,22884997.120733377
190,0.0
2,11, 1,11, 0,15, 0.00,60.00,Wednesday
141,22851313.46468529
190,0.0
2,11, 1,11, 0,16, 0.00,60.00,Wednesday
141,22870952.161547903
190,0.0
2,11, 1,11, 0,17, 0.00,60.00,Wednesday
141,22622648.8749429
190,0.0
2,11, 1,11, 0,18, 0.00,60.00,Wednesday
141,22384667.6753826
190,0.0
2,11, 1,11, 0,19, 0.00,60.00,Wednesday
141,22221188.81503759
190,0.0
2,11, 1,11, 0,20, 0.00,60.00,Wednesday
141,22207538.289777625
190,0.0
2,11, 1,11, 0,21, 0.00,60.00,Wednesday
141,22203746.74768882
190,0.0
2,11, 1,11, 0,22, 0.00,60.00,Wednesday
141,21695696.37764662
190,0.0
2,11, 1,11, 0,23, 0.00,60.00,Wednesday
141,21303565.706263125
190,0.0
2,11, 1,11, 0,24, 0.00,60.00,Wednesday
141,21335521.152463067
190,0.0
2,12, 1,12, 0, 1, 0.00,60.00,Thursday
141,21526276.554282565
190,0.0
2,12, 1,12, 0, 2, 0.00,60.00,Thursday
141,21555235.975650582
190,0.0
2,12, 1,12, 0, 3, 0.00,60.00,Thursday
141,21439591.967359114
190,0.0
2,12, 1,12, 0, 4, 0.00,60.00,Thursday
141,21461485.759928852
190,0.0
2,12, 1,12, 0, 5, 0.00,60.00,Thursday
141,21644904.95398359
190,0.0
2,12, 1,12, 0, 6, 0.00,60.00,Thursday
141,22071242.710011315
190,0.0
2,12, 1,12, 0, 7, 0.00,60.00,Thursday
141,22303920.811301447
190,0.0
2,12, 1,12, 0, 8, 0.00,60.00,Thursday
141,22364479.758784384
190,0.0
2,12, 1,12, 0, 9, 0.00,60.00,Thursday
141,22072288.709722582
190,0.0
2,12, 1,12, 0,10, 0.00,60.00,Thursday
141,21431261.09050253
190,0.0
2,12, 1,12, 0,11, 0.00,60.00,Thursday
141,20943426.153185003
190,0.0
2,12, 1,12, 0,12, 0.00,60.00,Thursday
141,20665508.56368441
190,0.0
2,12, 1,12, 0,13, 0.00,60.00,Thursday
141,20300018.774203163
190,0.0
2,12, 1,12, 0,14, 0.00,60.00,Thursday
141,19905047.024409376
190,0.0
2,12, 1,12, 0,15, 0.00,60.00,Thursday
141,19891894.146496575
190,0.0
2,12, 1,12, 0,16, 0.00,60.00,Thursday
141,20051422.109951634
190,0.0
2,12, 1,12, 0,17, 0.00,60.00,Thursday
141,20828157.532538697
190,0.0
2,12, 1,12, 0,18, 0.00,60.00,Thursday
141,21281980.2680101
190,0.0
2,12, 1,12, 0,19, 0.00,60.00,Thursday
141,21097469.314221203
190,0.0
2,12, 1,12, 0,20, 0.00,60.00,Thursday
141,20666058.393243965
190,0.0
2,12, 1,12, 0,21, 0.00,60.00,Thursday
141,20489157.506889384
190,0.0
2,12, 1,12, 0,22, 0.00,60.00,Thursday
141,20196757.42318526
190,0.0
2,12, 1,12, 0,23, 0.00,60.00,Thursday
141,20086343.707999792
190,0.0
2,12, 1,12, 0,24, 0.00,60.00,Thursday
141,20106500.074422345
190,0.0
2,13, 1,13, 0, 1, 0.00,60.00,Friday
141,19915963.35270827
190,0.0
2,13, 1,13, 0, 2, 0.00,60.00,Friday
141,19741759.1007716
190,0.0
2,13, 1,13, 0, 3, 0.00,60.00,Friday
141,19481970.796973743
190,0.0
2,13, 1,13, 0, 4, 0.00,60.00,Friday
141,19324788.319470186
190,0.0
2,13, 1,13, 0, 5, 0.00,60.00,Friday
141,19310649.18840633
190,0.0
2,13, 1,13, 0, 6, 0.00,60.00,Friday
141,19363277.63221633
190,0.0
2,13, 1,13, 0, 7, 0.00,60.00,Friday
141,19526647.10762944
190,0.0
2,13, 1,13, 0, 8, 0.00,60.00,Friday
141,19538013.398942642
190,0.0
2,13, 1,13, 0, 9, 0.00,60.00,Friday
141,19344952.21455145
190,0.0
2,13, 1,13, 0,10, 0.00,60.00,Friday
141,19829389.795054026
190,0.0
2,13, 1,13, 0,11, 0.00,60.00,Friday
141,20371329.970103815
190,0.0
2,13, 1,13, 0,12, 0.00,60.00,Friday
141,20405657.101167142
190,0.0
2,13, 1,13, 0,13, 0.00,60.00,Friday
141,20468745.342961524
190,0.0
2,13, 1,13, 0,14, 0.00,60.00,Friday
141,20799538.423615687
190,0.0
2,13, 1,13, 0,15, 0.00,60.00,Friday
141,20975709.3796919
190,0.0
2,13, 1,13, 0,16, 0.00,60.00,Friday
141,20899796.19393583
190,0.0
2,13, 1,13, 0,17, 0.00,60.00,Friday
141,20774445.31335879
190,0.0
2,13, 1,13, 0,18, 0.00,60.00,Friday
141,20709330.346283987
190,0.0
2,13, 1,13, 0,19, 0.00,60.00,Friday
141,21018419.18886801
190,0.0
2,13, 1,13, 0,20, 0.00,60.00,Friday
141,21575460.06411159
190,0.0
2,13, 1,13, 0,21, 0.00,60.00,Friday
141,22072745.964103427
190,0.0
2,13, 1,13, 0,22, 0.00,60.00,Friday
141,22384611.780725848
190,0.0
2,13, 1,13, 0,23, 0.00,60.00,Friday
141,22260838.10514922
190,0.0
2,13, 1,13, 0,24, 0.00,60.00,Friday
141,23572544.983087912
190,0.0
2,14, 1,14, 0, 1, 0.00,60.00,Saturday
141,24473492.53132901
190,0.0
2,14, 1,14, 0, 2, 0.00,60.00,Saturday
141,24089871.20374717
190,0.0
2,14, 1,14, 0, 3, 0.00,60.00,Saturday
141,24161560.229963046
190,0.0
2,14, 1,14, 0, 4, 0.00,60.00,Saturday
141,24014526.40581244
190,0.0
2,14, 1,14, 0, 5, 0.00,60.00,Saturday
141,23969645.026554536
190,0.0
2,14, 1,14, 0, 6, 0.00,60.00,Saturday
141,24925100.71213208
190,0.0
2,14, 1,14, 0, 7, 0.00,60.00,Saturday
141,25640247.858850453
190,0.0
2,14, 1,14, 0, 8, 0.00,60.00,Saturday
141,25395107.084052317
190,0.0
2,14, 1,14, 0, 9, 0.00,60.00,Saturday
141,25768153.72673592
190,0.0
2,14, 1,14, 0,10, 0.00,60.00,Saturday
141,26274532.263355225
190,0.0
2,14, 1,14, 0,11, 0.00,60.00,Saturday
141,26049212.99879389
190,0.0
2,14, 1,14, 0,12, 0.00,60.00,Saturday
141,25719138.05055815
190,0.0
2,14, 1,14, 0,13, 0.00,60.00,Saturday
141,25154754.670658287
190,0.0
2,14, 1,14, 0,14, 0.00,60.00,Saturday
141,24022329.655821327
190,0.0
2,14, 1,14, 0,15, 0.00,60.00,Saturday
141,23877591.172433734
190,0.0
2,14, 1,14, 0,16, 0.00,60.00,Saturday
141,24132113.72440537
190,0.0
2,14, 1,14, 0,17, 0.00,60.00,Saturday
141,24587220.105501268
190,0.0
2,14, 1,14, 0,18, 0.00,60.00,Saturday
141,25428979.887960613
190,0.0
2,14, 1,14, 0,19, 0.00,60.00,Saturday
141,25448939.490532815
190,0.0
2,14, 1,14, 0,20, 0.00,60.00,Saturday
141,25562394.255348194
190,0.0
2,14, 1,14, 0,21, 0.00,60.00,Saturday
141,25405350.140890684
190,0.0
2,14, 1,14, 0,22, 0.00,60.00,Saturday
141,25114917.525305785
190,0.0
2,14, 1,14, 0,23, 0.00,60.00,Saturday
141,24905686.58295207
190,0.0
2,14, 1,14, 0,24, 0.00,60.00,Saturday
141,24818016.023780316
190,0.0
2,15, 1,15, 0, 1, 0.00,60.00,Sunday
141,24311737.002632782
190,0.0
2,15, 1,15, 0, 2, 0.00,60.00,Sunday
141,23111323.022323526
190,0.0
2,15, 1,15, 0, 3, 0.00,60.00,Sunday
141,22530935.175319288
190,0.0
2,15, 1,15, 0, 4, 0.00,60.00,Sunday
141,22126671.030071467
190,0.0
2,15, 1,15, 0, 5, 0.00,60.00,Sunday
141,21378167.302396495
190,0.0
2,15, 1,15, 0, 6, 0.00,60.00,Sunday
141,20591307.078806102
190,0.0
2,15, 1,15, 0, 7, 0.00,60.00,Sunday
141,19816591.90589222
190,0.0
2,15, 1,15, 0, 8, 0.00,60.00,Sunday
141,19311346.72312861
190,0.0
2,15, 1,15, 0, 9, 0.00,60.00,Sunday
141,18933989.3148322
190,0.0
2,15, 1,15, 0,10, 0.00,60.00,Sunday
141,18899587.381743796
190,0.0
2,15, 1,15, 0,11, 0.00,60.00,Sunday
141,19343791.768409044
190,0.0
2,15, 1,15, 0,12, 0.00,60.00,Sunday
141,20453557.720585838
190,0.0
2,15, 1,15, 0,13, 0.00,60.00,Sunday
141,21279688.597071547
190,0.0
2,15, 1,15, 0,14, 0.00,60.00,Sunday
141,21634442.223923054
190,0.0
2,15, 1,15, 0,15, 0.00,60.00,Sunday
141,21787585.117431045
190,0.0
2,15, 1,15, 0,16, 0.00,60.00,Sunday
141,21541187.128802396
190,0.0
2,15, 1,15, 0,17, 0.00,60.00,Sunday
141,21375994.444188874
190,0.0
2,15, 1,15, 0,18, 0.00,60.00,Sunday
141,21460268.9589018
190,0.0
2,15, 1,15, 0,19, 0.00,60.00,Sunday
141,21654974.799942315
190,0.0
2,15, 1,15, 0,20, 0.00,60.00,Sunday
141,21899936.573696833
190,0.0
2,15, 1,15, 0,21, 0.00,60.00,Sunday
141,22407040.696725883
190,0.0
2,15, 1,15, 0,22, 0.00,60.00,Sunday
141,22635831.166056402
190,0.0
2,15, 1,15, 0,23, 0.00,60.00,Sunday
141,22665079.60600852
190,0.0
2,15, 1,15, 0,24, 0.00,60.00,Sunday
141,22790975.405403137
190,0.0
2,16, 1,16, 0, 1, 0.00,60.00,Monday
141,23247136.67743441
190,0.0
2,16, 1,16, 0, 2, 0.00,60.00,Monday
141,23672862.582173582
190,0.0
2,16, 1,16, 0, 3, 0.00,60.00,Monday
141,23909190.214322824
190,0.0
2,16, 1,16, 0, 4, 0.00,60.00,Monday
141,24079653.05305477
190,0.0
2,16, 1,16, 0, 5, 0.00,60.00,Monday
141,24337649.028711285
190,0.0
2,16, 1,16, 0, 6, 0.00,60.00,Monday
141,24558390.260195285
190,0.0
2,16, 1,16, 0, 7, 0.00,60.00,Monday
141,25018757.722603362
190,0.0
2,16, 1,16, 0, 8, 0.00,60.00,Monday
141,25451022.07659071
190,0.0
2,16, 1,16, 0, 9, 0.00,60.00,Monday
141,25631635.54664488
190,0.0
2,16, 1,16, 0,10, 0.00,60.00,Monday
141,25628405.208773784
190,0.0
2,16, 1,16, 0,11, 0.00,60.00,Monday
141,24641663.3886242
190,0.0
2,16, 1,16, 0,12, 0.00,60.00,Monday
141,23770810.145123456
190,0.0
2,16, 1,16, 0,13, 0.00,60.00,Monday
141,23095856.337021805
190,0.0
2,16, 1,16, 0,14, 0.00,60.00,Monday
141,22651932.95297301
190,0.0
2,16, 1,16, 0,15, 0.00,60.00,Monday
141,22611555.499726936
190,0.0
2,16, 1,16, 0,16, 0.00,60.00,Monday
141,22819829.226332363
190,0.0
2,16, 1,16, 0,17, 0.00,60.00,Monday
141,23314140.437228717
190,0.0
2,16, 1,16, 0,18, 0.00,60.00,Monday
141,24248973.674518477
190,0.0
2,16, 1,16, 0,19, 0.00,60.00,Monday
141,25229362.567155477
190,0.0
2,16, 1,16, 0,20, 0.00,60.00,Monday
141,25726395.146453287
190,0.0
2,16, 1,16, 0,21, 0.00,60.00,Monday
141,26117666.455755953
190,0.0
2,16, 1,16, 0,22, 0.00,60.00,Monday
141,26471569.643098902
190,0.0
2,16, 1,16, 0,23, 0.00,60.00,Monday
141,27005999.47767008
190,0.0
2,16, 1,16, 0,24, 0.00,60.00,Monday
141,27120552.825988628
190,0.0
2,17, 1,17, 0, 1, 0.00,60.00,Tuesday
141,27275091.66665321
190,0.0
2,17, 1,17, 0, 2, 0.00,60.00,Tuesday
141,27913494.578377
190,0.0
2,17, 1,17, 0, 3, 0.00,60.00,Tuesday
141,28440639.752060298
190,0.0
2,17, 1,17, 0, 4, 0.00,60.00,Tuesday
141,28885699.082714267
190,0.0
2,17, 1,17, 0, 5, 0.00,60.00,Tuesday
141,29382914.980228305
190,0.0
2,17, 1,17, 0, 6, 0.00,60.00,Tuesday
141,29882241.92490898
190,0.0
2,17, 1,17, 0, 7, 0.00,60.00,Tuesday
141,30171534.139662612
190,0.0
2,17, 1,17, 0, 8, 0.00,60.00,Tuesday
141,30315058.87872972
190,0.0
2,17, 1,17, 0, 9, 0.00,60.00,Tuesday
141,30325235.129680254
190,0.0
2,17, 1,17, 0,10, 0.00,60.00,Tuesday
141,29180807.721166577
190,0.0
2,17, 1,17, 0,11, 0.00,60.00,Tuesday
141,27505085.136299174
190,0.0
2,17, 1,17, 0,12, 0.00,60.00,Tuesday
141,26061552.47101313
190,0.0
2,17, 1,17, 0,13, 0.00,60.00,Tuesday
141,25223230.600340113
190,0.0
2,17, 1,17, 0,14, 0.00,60.00,Tuesday
141,25050292.758027
190,0.0
2,17, 1,17, 0,15, 0.00,60.00,Tuesday
141,25343901.388196126
190,0.0
2,17, 1,17, 0,16, 0.00,60.00,Tuesday
141,26183231.576030597
190,0.0
2,17, 1,17, 0,17, 0.00,60.00,Tuesday
141,26863102.62623982
190,0.0
2,17, 1,17, 0,18, 0.00,60.00,Tuesday
141,26971806.291478314
190,0.0
2,17, 1,17, 0,19, 0.00,60.00,Tuesday
141,26951862.98798532
190,0.0
2,17, 1,17, 0,20, 0.00,60.00,Tuesday
141,27127719.203528047
190,0.0
2,17, 1,17, 0,21, 0.00,60.00,Tuesday
141,27399329.49395784
190,0.0
2,17, 1,17, 0,22, 0.00,60.00,Tuesday
141,27456708.394365847
190,0.0
2,17, 1,17, 0,23, 0.00,60.00,Tuesday
141,27499591.67073807
190,0.0
2,17, 1,17, 0,24, 0.00,60.00,Tuesday
141,27847594.514583386
190,0.0
2,18, 1,18, 0, 1, 0.00,60.00,Wednesday
141,28063582.298680596
190,0.0
2,18, 1,18, 0, 2, 0.00,60.00,Wednesday
141,28213741.42062738
190,0.0
2,18, 1,18, 0, 3, 0.00,60.00,Wednesday
141,28250581.792561375
190,0.0
2,18, 1,18, 0, 4, 0.00,60.00,Wednesday
141,28206729.879299015
190,0.0
2,18, 1,18, 0, 5, 0.00,60.00,Wednesday
141,28212891.058628064
190,0.0
2,18, 1,18, 0, 6, 0.00,60.00,Wednesday
141,28286843.17469312
190,0.0
2,18, 1,18, 0, 7, 0.00,60.00,Wednesday
141,28826673.68962188
190,0.0
2,18, 1,18, 0, 8, 0.00,60.00,Wednesday
141,28974378.677492104
190,0.0
2,18, 1,18, 0, 9, 0.00,60.00,Wednesday
141,29045764.75835421
190,0.0
2,18, 1,18, 0,10, 0.00,60.00,Wednesday
141,28994726.412827827
190,0.0
2,18, 1,18, 0,11, 0.00,60.00,Wednesday
141,28438953.897739224
190,0.0
2,18, 1,18, 0,12, 0.00,60.00,Wednesday
141,28013071.030771106
190,0.0
2,18, 1,18, 0,13, 0.00,60.00,Wednesday
141,28197299.55135005
190,0.0
2,18, 1,18, 0,14, 0.00,60.00,Wednesday
141,28607862.521994207
190,0.0
2,18, 1,18, 0,15, 0.00,60.00,Wednesday
141,28832996.74838572
190,0.0
2,18, 1,18, 0,16, 0.00,60.00,Wednesday
141,29312610.0573444
190,0.0
2,18, 1,18, 0,17, 0.00,60.00,Wednesday
141,29557526.486720793
190,0.0
2,18, 1,18, 0,18, 0.00,60.00,Wednesday
141,29383986.173806235
190,0.0
2,18, 1,18, 0,19, 0.00,60.00,Wednesday
141,29302408.336742327
190,0.0
2,18, 1,18, 0,20, 0.00,60.00,Wednesday
141,29390643.46692396
190,0.0
2,18, 1,18, 0,21, 0.00,60.00,Wednesday
141,29453988.872941926
190,0.0
2,18, 1,18, 0,22, 0.00,60.00,Wednesday
141,29609719.43679611
190,0.0
2,18, 1,18, 0,23, 0.00,60.00,Wednesday
141,29723076.389218733
190,0.0
2,18, 1,18, 0,24, 0.00,60.00,Wednesday
141,29874065.876087725
190,0.0
2,19, 1,19, 0, 1, 0.00,60.00,Thursday