Program Version,EnergyPlus, Version 24.2.0-94a887817b, YMD=2025.04.24 13:22
1,5,Environment Title[],Latitude[deg],Longitude[deg],Time Zone[],Elevation[m]
2,8,Day of Simulation[],Month[],Day of Month[],DST Indicator[1=yes 0=no],Hour[],StartMinute[],EndMinute[],DayType
3,5,Cumulative Day of Simulation[],Month[],Day of Month[],DST Indicator[1=yes 0=no],DayType  ! When Daily Report Variables Requested
4,2,Cumulative Days of Simulation[],Month[]  ! When Monthly Report Variables Requested
5,1,Cumulative Days of Simulation[] ! When Run Period Report Variables Requested
6,1,Calendar Year of Simulation[] ! When Annual Report Variables Requested
141,1,ZONE_0599100015001773 IDEAL LOADS AIR SYSTEM,Zone Ideal Loads Supply Air Total Heating Energy [J] !Hourly
190,1,ZONE_0599100015001773 IDEAL LOADS AIR SYSTEM,Zone Ideal Loads Supply Air Total Cooling Energy [J] !Hourly
End of Data Dictionary
1,RUN PERIOD 1,  51.96,   4.45,   1.00,  -4.50
2,1, 1, 1, 0, 1, 0.00,60.00,Sunday
141,56526888.27864513
190,0.0
2,1, 1, 1, 0, 2, 0.00,60.00,Sunday
141,58394331.519879706
190,0.0
2,1, 1, 1, 0, 3, 0.00,60.00,Sunday
141,58414036.09746811
190,0.0
2,1, 1, 1, 0, 4, 0.00,60.00,Sunday
141,59812454.45160167
190,0.0
2,1, 1, 1, 0, 5, 0.00,60.00,Sunday
141,60807652.320958085
190,0.0
2,1, 1, 1, 0, 6, 0.00,60.00,Sunday
141,61014201.245051794
190,0.0
2,1, 1, 1, 0, 7, 0.00,60.00,Sunday
141,61306971.50224286
190,0.0
2,1, 1, 1, 0, 8, 0.00,60.00,Sunday
141,61334050.8096051
190,0.0
2,1, 1, 1, 0, 9, 0.00,60.00,Sunday
141,61393083.34392679
190,0.0
2,1, 1, 1, 0,10, 0.00,60.00,Sunday
141,61134912.05628487
190,0.0
2,1, 1, 1, 0,11, 0.00,60.00,Sunday
141,60189851.34201851
190,0.0
2,1, 1, 1, 0,12, 0.00,60.00,Sunday
141,58514903.80524411
190,0.0
2,1, 1, 1, 0,13, 0.00,60.00,Sunday
141,57679111.62042364
190,0.0
2,1, 1, 1, 0,14, 0.00,60.00,Sunday
141,56381060.755230464
190,0.0
2,1, 1, 1, 0,15, 0.00,60.00,Sunday
141,55327002.76909268
190,0.0
2,1, 1, 1, 0,16, 0.00,60.00,Sunday
141,55859735.382714555
190,0.0
2,1, 1, 1, 0,17, 0.00,60.00,Sunday
141,56563377.0536774
190,0.0
2,1, 1, 1, 0,18, 0.00,60.00,Sunday
141,56570524.82506542
190,0.0
2,1, 1, 1, 0,19, 0.00,60.00,Sunday
141,56606611.90805867
190,0.0
2,1, 1, 1, 0,20, 0.00,60.00,Sunday
141,56379854.24215674
190,0.0
2,1, 1, 1, 0,21, 0.00,60.00,Sunday
141,56113922.588539734
190,0.0
2,1, 1, 1, 0,22, 0.00,60.00,Sunday
141,56198197.57888909
190,0.0
2,1, 1, 1, 0,23, 0.00,60.00,Sunday
141,54941015.33284168
190,0.0
2,1, 1, 1, 0,24, 0.00,60.00,Sunday
141,54036620.95383353
190,0.0
2,2, 1, 2, 0, 1, 0.00,60.00,Monday
141,54254251.24908487
190,0.0
2,2, 1, 2, 0, 2, 0.00,60.00,Monday
141,53019973.90787095
190,0.0
2,2, 1, 2, 0, 3, 0.00,60.00,Monday
141,52070764.47761283
190,0.0
2,2, 1, 2, 0, 4, 0.00,60.00,Monday
141,51090102.35238036
190,0.0
2,2, 1, 2, 0, 5, 0.00,60.00,Monday
141,48900276.09922883
190,0.0
2,2, 1, 2, 0, 6, 0.00,60.00,Monday
141,47820881.71101158
190,0.0
2,2, 1, 2, 0, 7, 0.00,60.00,Monday
141,46114607.81577408
190,0.0
2,2, 1, 2, 0, 8, 0.00,60.00,Monday
141,44012679.672085434
190,0.0
2,2, 1, 2, 0, 9, 0.00,60.00,Monday
141,44470664.677073084
190,0.0
2,2, 1, 2, 0,10, 0.00,60.00,Monday
141,45760324.664185725
190,0.0
2,2, 1, 2, 0,11, 0.00,60.00,Monday
141,46545848.77040106
190,0.0
2,2, 1, 2, 0,12, 0.00,60.00,Monday
141,45472059.56008284
190,0.0
2,2, 1, 2, 0,13, 0.00,60.00,Monday
141,44952413.53608276
190,0.0
2,2, 1, 2, 0,14, 0.00,60.00,Monday
141,45901225.29342319
190,0.0
2,2, 1, 2, 0,15, 0.00,60.00,Monday
141,46331906.76451219
190,0.0
2,2, 1, 2, 0,16, 0.00,60.00,Monday
141,47332392.053586304
190,0.0
2,2, 1, 2, 0,17, 0.00,60.00,Monday
141,48349645.46456482
190,0.0
2,2, 1, 2, 0,18, 0.00,60.00,Monday
141,48625981.34758896
190,0.0
2,2, 1, 2, 0,19, 0.00,60.00,Monday
141,49802097.110171646
190,0.0
2,2, 1, 2, 0,20, 0.00,60.00,Monday
141,50915609.59322714
190,0.0
2,2, 1, 2, 0,21, 0.00,60.00,Monday
141,51243815.94118264
190,0.0
2,2, 1, 2, 0,22, 0.00,60.00,Monday
141,51402501.91645823
190,0.0
2,2, 1, 2, 0,23, 0.00,60.00,Monday
141,51642763.219720185
190,0.0
2,2, 1, 2, 0,24, 0.00,60.00,Monday
141,51909327.81759915
190,0.0
2,3, 1, 3, 0, 1, 0.00,60.00,Tuesday
141,52202203.46784845
190,0.0
2,3, 1, 3, 0, 2, 0.00,60.00,Tuesday
141,52393873.10455222
190,0.0
2,3, 1, 3, 0, 3, 0.00,60.00,Tuesday
141,52533896.42072844
190,0.0
2,3, 1, 3, 0, 4, 0.00,60.00,Tuesday
141,52828102.01861751
190,0.0
2,3, 1, 3, 0, 5, 0.00,60.00,Tuesday
141,54122436.874837525
190,0.0
2,3, 1, 3, 0, 6, 0.00,60.00,Tuesday
141,54935224.944638304
190,0.0
2,3, 1, 3, 0, 7, 0.00,60.00,Tuesday
141,55299726.180697165
190,0.0
2,3, 1, 3, 0, 8, 0.00,60.00,Tuesday
141,55155640.18439998
190,0.0
2,3, 1, 3, 0, 9, 0.00,60.00,Tuesday
141,56095604.72454413
190,0.0
2,3, 1, 3, 0,10, 0.00,60.00,Tuesday
141,56517422.608211264
190,0.0
2,3, 1, 3, 0,11, 0.00,60.00,Tuesday
141,56582872.941858456
190,0.0
2,3, 1, 3, 0,12, 0.00,60.00,Tuesday
141,56833659.64069789
190,0.0
2,3, 1, 3, 0,13, 0.00,60.00,Tuesday
141,58333406.45974167
190,0.0
2,3, 1, 3, 0,14, 0.00,60.00,Tuesday
141,59178544.67068777
190,0.0
2,3, 1, 3, 0,15, 0.00,60.00,Tuesday
141,59009712.57254697
190,0.0
2,3, 1, 3, 0,16, 0.00,60.00,Tuesday
141,58844394.93176251
190,0.0
2,3, 1, 3, 0,17, 0.00,60.00,Tuesday
141,58877928.54006714
190,0.0
2,3, 1, 3, 0,18, 0.00,60.00,Tuesday
141,58968457.67639868
190,0.0
2,3, 1, 3, 0,19, 0.00,60.00,Tuesday
141,58679115.024355374
190,0.0
2,3, 1, 3, 0,20, 0.00,60.00,Tuesday
141,57437093.56941613
190,0.0
2,3, 1, 3, 0,21, 0.00,60.00,Tuesday
141,54182416.35814007
190,0.0
2,3, 1, 3, 0,22, 0.00,60.00,Tuesday
141,52481006.89397393
190,0.0
2,3, 1, 3, 0,23, 0.00,60.00,Tuesday
141,53797103.42343561
190,0.0
2,3, 1, 3, 0,24, 0.00,60.00,Tuesday
141,55992890.16726219
190,0.0
2,4, 1, 4, 0, 1, 0.00,60.00,Wednesday
141,57120490.684970036
190,0.0
2,4, 1, 4, 0, 2, 0.00,60.00,Wednesday
141,57048273.24082533
190,0.0
2,4, 1, 4, 0, 3, 0.00,60.00,Wednesday
141,56862271.093530126
190,0.0
2,4, 1, 4, 0, 4, 0.00,60.00,Wednesday
141,57364716.074743375
190,0.0
2,4, 1, 4, 0, 5, 0.00,60.00,Wednesday
141,58894727.20286055
190,0.0
2,4, 1, 4, 0, 6, 0.00,60.00,Wednesday
141,58627106.4209536
190,0.0
2,4, 1, 4, 0, 7, 0.00,60.00,Wednesday
141,58626009.69921562
190,0.0
2,4, 1, 4, 0, 8, 0.00,60.00,Wednesday
141,59227815.833540596
190,0.0
2,4, 1, 4, 0, 9, 0.00,60.00,Wednesday
141,59656166.171507925
190,0.0
2,4, 1, 4, 0,10, 0.00,60.00,Wednesday
141,59998974.03371991
190,0.0
2,4, 1, 4, 0,11, 0.00,60.00,Wednesday
141,57499020.550634064
190,0.0
2,4, 1, 4, 0,12, 0.00,60.00,Wednesday
141,53288354.90596999
190,0.0
2,4, 1, 4, 0,13, 0.00,60.00,Wednesday
141,52241124.03905852
190,0.0
2,4, 1, 4, 0,14, 0.00,60.00,Wednesday
141,52167099.88735613
190,0.0
2,4, 1, 4, 0,15, 0.00,60.00,Wednesday
141,51776281.23430611
190,0.0
2,4, 1, 4, 0,16, 0.00,60.00,Wednesday
141,53499716.878115624
190,0.0
2,4, 1, 4, 0,17, 0.00,60.00,Wednesday
141,56579132.24734744
190,0.0
2,4, 1, 4, 0,18, 0.00,60.00,Wednesday
141,59223501.844832756
190,0.0
2,4, 1, 4, 0,19, 0.00,60.00,Wednesday
141,61929933.65594435
190,0.0
2,4, 1, 4, 0,20, 0.00,60.00,Wednesday
141,63362139.75038326
190,0.0
2,4, 1, 4, 0,21, 0.00,60.00,Wednesday
141,64065776.15835921
190,0.0
2,4, 1, 4, 0,22, 0.00,60.00,Wednesday
141,65532290.383004785
190,0.0
2,4, 1, 4, 0,23, 0.00,60.00,Wednesday
141,65126403.52303017
190,0.0
2,4, 1, 4, 0,24, 0.00,60.00,Wednesday
141,64369386.16001822
190,0.0
2,5, 1, 5, 0, 1, 0.00,60.00,Thursday
141,64988743.128940195
190,0.0
2,5, 1, 5, 0, 2, 0.00,60.00,Thursday
141,64565368.60106005
190,0.0
2,5, 1, 5, 0, 3, 0.00,60.00,Thursday
141,64139412.45201686
190,0.0
2,5, 1, 5, 0, 4, 0.00,60.00,Thursday
141,64464015.861052096
190,0.0
2,5, 1, 5, 0, 5, 0.00,60.00,Thursday
141,63854002.28890353
190,0.0
2,5, 1, 5, 0, 6, 0.00,60.00,Thursday
141,63629220.81167614
190,0.0
2,5, 1, 5, 0, 7, 0.00,60.00,Thursday
141,64175532.18070808
190,0.0
2,5, 1, 5, 0, 8, 0.00,60.00,Thursday
141,64618850.55133057
190,0.0
2,5, 1, 5, 0, 9, 0.00,60.00,Thursday
141,64742503.9568909
190,0.0
2,5, 1, 5, 0,10, 0.00,60.00,Thursday
141,65510725.2859005
190,0.0
2,5, 1, 5, 0,11, 0.00,60.00,Thursday
141,65211321.06742299
190,0.0
2,5, 1, 5, 0,12, 0.00,60.00,Thursday
141,63257164.6605133
190,0.0
2,5, 1, 5, 0,13, 0.00,60.00,Thursday
141,62425848.491574794
190,0.0
2,5, 1, 5, 0,14, 0.00,60.00,Thursday
141,60830428.36287524
190,0.0
2,5, 1, 5, 0,15, 0.00,60.00,Thursday
141,59428498.82606456
190,0.0
2,5, 1, 5, 0,16, 0.00,60.00,Thursday
141,59878474.96675104
190,0.0
2,5, 1, 5, 0,17, 0.00,60.00,Thursday
141,59242228.49864905
190,0.0
2,5, 1, 5, 0,18, 0.00,60.00,Thursday
141,58274399.283919066
190,0.0
2,5, 1, 5, 0,19, 0.00,60.00,Thursday
141,58246439.71684581
190,0.0
2,5, 1, 5, 0,20, 0.00,60.00,Thursday
141,57893389.614483714
190,0.0
2,5, 1, 5, 0,21, 0.00,60.00,Thursday
141,57462643.65760043
190,0.0
2,5, 1, 5, 0,22, 0.00,60.00,Thursday
141,57310453.059563994
190,0.0
2,5, 1, 5, 0,23, 0.00,60.00,Thursday
141,57434685.68534984
190,0.0
2,5, 1, 5, 0,24, 0.00,60.00,Thursday
141,57612187.886435606
190,0.0
2,6, 1, 6, 0, 1, 0.00,60.00,Friday
141,57706887.66265381
190,0.0
2,6, 1, 6, 0, 2, 0.00,60.00,Friday
141,57806021.59931889
190,0.0
2,6, 1, 6, 0, 3, 0.00,60.00,Friday
141,58948313.66776482
190,0.0
2,6, 1, 6, 0, 4, 0.00,60.00,Friday
141,60063908.687905505
190,0.0
2,6, 1, 6, 0, 5, 0.00,60.00,Friday
141,60629080.85404189
190,0.0
2,6, 1, 6, 0, 6, 0.00,60.00,Friday
141,61350069.275579885
190,0.0
2,6, 1, 6, 0, 7, 0.00,60.00,Friday
141,62457355.55329867
190,0.0
2,6, 1, 6, 0, 8, 0.00,60.00,Friday
141,63534719.39381434
190,0.0
2,6, 1, 6, 0, 9, 0.00,60.00,Friday
141,64861232.7683192
190,0.0
2,6, 1, 6, 0,10, 0.00,60.00,Friday
141,65710766.093012005
190,0.0
2,6, 1, 6, 0,11, 0.00,60.00,Friday
141,65001950.80061114
190,0.0
2,6, 1, 6, 0,12, 0.00,60.00,Friday
141,63831184.45922795
190,0.0
2,6, 1, 6, 0,13, 0.00,60.00,Friday
141,63316790.42515948
190,0.0
2,6, 1, 6, 0,14, 0.00,60.00,Friday
141,63098233.45085497
190,0.0
2,6, 1, 6, 0,15, 0.00,60.00,Friday
141,62687344.96770476
190,0.0
2,6, 1, 6, 0,16, 0.00,60.00,Friday
141,61728563.55986087
190,0.0
2,6, 1, 6, 0,17, 0.00,60.00,Friday
141,60707584.48189485
190,0.0
2,6, 1, 6, 0,18, 0.00,60.00,Friday
141,60151845.41914548
190,0.0
2,6, 1, 6, 0,19, 0.00,60.00,Friday
141,59580499.62544374
190,0.0
2,6, 1, 6, 0,20, 0.00,60.00,Friday
141,58405584.122414604
190,0.0
2,6, 1, 6, 0,21, 0.00,60.00,Friday
141,55582485.04714756
190,0.0
2,6, 1, 6, 0,22, 0.00,60.00,Friday
141,52240708.65930933
190,0.0
2,6, 1, 6, 0,23, 0.00,60.00,Friday
141,50815716.29009108
190,0.0
2,6, 1, 6, 0,24, 0.00,60.00,Friday
141,51245603.31555264
190,0.0
2,7, 1, 7, 0, 1, 0.00,60.00,Saturday
141,54037691.91055827
190,0.0
2,7, 1, 7, 0, 2, 0.00,60.00,Saturday
141,56782484.002349
190,0.0
2,7, 1, 7, 0, 3, 0.00,60.00,Saturday
141,56372710.911388025
190,0.0
2,7, 1, 7, 0, 4, 0.00,60.00,Saturday
141,56575772.272705525
190,0.0
2,7, 1, 7, 0, 5, 0.00,60.00,Saturday
141,58445374.002325185
190,0.0
2,7, 1, 7, 0, 6, 0.00,60.00,Saturday
141,59916445.19112621
190,0.0
2,7, 1, 7, 0, 7, 0.00,60.00,Saturday
141,60790828.682102926
190,0.0
2,7, 1, 7, 0, 8, 0.00,60.00,Saturday
141,61247182.07155827
190,0.0
2,7, 1, 7, 0, 9, 0.00,60.00,Saturday
141,60254181.31898835
190,0.0
2,7, 1, 7, 0,10, 0.00,60.00,Saturday
141,59399588.89378658
190,0.0
2,7, 1, 7, 0,11, 0.00,60.00,Saturday
141,56741469.401207805
190,0.0
2,7, 1, 7, 0,12, 0.00,60.00,Saturday
141,54026431.40806888
190,0.0
2,7, 1, 7, 0,13, 0.00,60.00,Saturday
141,51951898.70377816
190,0.0
2,7, 1, 7, 0,14, 0.00,60.00,Saturday
141,50712815.335647166
190,0.0
2,7, 1, 7, 0,15, 0.00,60.00,Saturday
141,50786660.68973368
190,0.0
2,7, 1, 7, 0,16, 0.00,60.00,Saturday
141,51238193.20578009
190,0.0
2,7, 1, 7, 0,17, 0.00,60.00,Saturday
141,51493308.98967235
190,0.0
2,7, 1, 7, 0,18, 0.00,60.00,Saturday
141,52361812.8028158
190,0.0
2,7, 1, 7, 0,19, 0.00,60.00,Saturday
141,53239792.93876018
190,0.0
2,7, 1, 7, 0,20, 0.00,60.00,Saturday
141,54193717.33513446
190,0.0
2,7, 1, 7, 0,21, 0.00,60.00,Saturday
141,54912553.63909309
190,0.0
2,7, 1, 7, 0,22, 0.00,60.00,Saturday
141,54890640.00791504
190,0.0
2,7, 1, 7, 0,23, 0.00,60.00,Saturday
141,55068673.13566741
190,0.0
2,7, 1, 7, 0,24, 0.00,60.00,Saturday
141,55086960.56680928
190,0.0
2,8, 1, 8, 0, 1, 0.00,60.00,Sunday
141,54455451.62535419
190,0.0
2,8, 1, 8, 0, 2, 0.00,60.00,Sunday
141,53764051.46698327
190,0.0
2,8, 1, 8, 0, 3, 0.00,60.00,Sunday
141,53207596.66050695
190,0.0
2,8, 1, 8, 0, 4, 0.00,60.00,Sunday
141,52278972.90449911
190,0.0
2,8, 1, 8, 0, 5, 0.00,60.00,Sunday
141,51041609.48777343
190,0.0
2,8, 1, 8, 0, 6, 0.00,60.00,Sunday
141,50115014.65046047
190,0.0
2,8, 1, 8, 0, 7, 0.00,60.00,Sunday
141,49382465.79526943
190,0.0
2,8, 1, 8, 0, 8, 0.00,60.00,Sunday
141,48701564.47563637
190,0.0
2,8, 1, 8, 0, 9, 0.00,60.00,Sunday
141,47921878.720142886
190,0.0
2,8, 1, 8, 0,10, 0.00,60.00,Sunday
141,47618040.16515194
190,0.0
2,8, 1, 8, 0,11, 0.00,60.00,Sunday
141,47329192.06891599
190,0.0
2,8, 1, 8, 0,12, 0.00,60.00,Sunday
141,47356096.06590389
190,0.0
2,8, 1, 8, 0,13, 0.00,60.00,Sunday
141,47053958.55783821
190,0.0
2,8, 1, 8, 0,14, 0.00,60.00,Sunday
141,47071884.319922194
190,0.0
2,8, 1, 8, 0,15, 0.00,60.00,Sunday
141,48614721.26875623
190,0.0
2,8, 1, 8, 0,16, 0.00,60.00,Sunday
141,49709656.102795176
190,0.0
2,8, 1, 8, 0,17, 0.00,60.00,Sunday
141,49680219.71616041
190,0.0
2,8, 1, 8, 0,18, 0.00,60.00,Sunday
141,50183272.479912534
190,0.0
2,8, 1, 8, 0,19, 0.00,60.00,Sunday
141,49907098.81983799
190,0.0
2,8, 1, 8, 0,20, 0.00,60.00,Sunday
141,48935134.7666219
190,0.0
2,8, 1, 8, 0,21, 0.00,60.00,Sunday
141,48269582.71925227
190,0.0
2,8, 1, 8, 0,22, 0.00,60.00,Sunday
141,48566429.51204394
190,0.0
2,8, 1, 8, 0,23, 0.00,60.00,Sunday
141,48856265.5790817
190,0.0
2,8, 1, 8, 0,24, 0.00,60.00,Sunday
141,49555314.06583033
190,0.0
2,9, 1, 9, 0, 1, 0.00,60.00,Monday
141,49761284.71653718
190,0.0
2,9, 1, 9, 0, 2, 0.00,60.00,Monday
141,49923879.26032731
190,0.0
2,9, 1, 9, 0, 3, 0.00,60.00,Monday
141,49874324.13776915
190,0.0
2,9, 1, 9, 0, 4, 0.00,60.00,Monday
141,49596839.275933824
190,0.0
2,9, 1, 9, 0, 5, 0.00,60.00,Monday
141,48838916.80478298
190,0.0
2,9, 1, 9, 0, 6, 0.00,60.00,Monday
141,48044487.08997895
190,0.0
2,9, 1, 9, 0, 7, 0.00,60.00,Monday
141,47455633.151941516
190,0.0
2,9, 1, 9, 0, 8, 0.00,60.00,Monday
141,47114863.24866858
190,0.0
2,9, 1, 9, 0, 9, 0.00,60.00,Monday
141,46164393.38883089
190,0.0
2,9, 1, 9, 0,10, 0.00,60.00,Monday
141,43888163.91594234
190,0.0
2,9, 1, 9, 0,11, 0.00,60.00,Monday
141,41936069.03605781
190,0.0
2,9, 1, 9, 0,12, 0.00,60.00,Monday
141,40817929.07138582
190,0.0
2,9, 1, 9, 0,13, 0.00,60.00,Monday
141,39850256.34365522
190,0.0
2,9, 1, 9, 0,14, 0.00,60.00,Monday
141,39073596.10712568
190,0.0
2,9, 1, 9, 0,15, 0.00,60.00,Monday
141,38676080.57807188
190,0.0
2,9, 1, 9, 0,16, 0.00,60.00,Monday
141,38929071.1205239
190,0.0
2,9, 1, 9, 0,17, 0.00,60.00,Monday
141,40253284.34929776
190,0.0
2,9, 1, 9, 0,18, 0.00,60.00,Monday
141,41520172.45620135
190,0.0
2,9, 1, 9, 0,19, 0.00,60.00,Monday
141,41284786.617462754
190,0.0
2,9, 1, 9, 0,20, 0.00,60.00,Monday
141,39205086.8493952
190,0.0
2,9, 1, 9, 0,21, 0.00,60.00,Monday
141,37114332.115822904
190,0.0
2,9, 1, 9, 0,22, 0.00,60.00,Monday
141,35787180.596937604
190,0.0
2,9, 1, 9, 0,23, 0.00,60.00,Monday
141,35425582.843343794
190,0.0
2,9, 1, 9, 0,24, 0.00,60.00,Monday
141,35374422.41181968
190,0.0
2,10, 1,10, 0, 1, 0.00,60.00,Tuesday
141,35709733.709116526
190,0.0
2,10, 1,10, 0, 2, 0.00,60.00,Tuesday
141,35849322.473656714
190,0.0
2,10, 1,10, 0, 3, 0.00,60.00,Tuesday
141,35677152.0176929
190,0.0
2,10, 1,10, 0, 4, 0.00,60.00,Tuesday
141,36063866.12175543
190,0.0
2,10, 1,10, 0, 5, 0.00,60.00,Tuesday
141,36076058.10976362
190,0.0
2,10, 1,10, 0, 6, 0.00,60.00,Tuesday
141,35958075.18677226
190,0.0
2,10, 1,10, 0, 7, 0.00,60.00,Tuesday
141,35882710.23685612
190,0.0
2,10, 1,10, 0, 8, 0.00,60.00,Tuesday
141,35538466.543160304
190,0.0
2,10, 1,10, 0, 9, 0.00,60.00,Tuesday
141,35126152.60022838
190,0.0
2,10, 1,10, 0,10, 0.00,60.00,Tuesday
141,34622965.343990244
190,0.0
2,10, 1,10, 0,11, 0.00,60.00,Tuesday
141,33940295.19894618
190,0.0
2,10, 1,10, 0,12, 0.00,60.00,Tuesday
141,33178093.64811543
190,0.0
2,10, 1,10, 0,13, 0.00,60.00,Tuesday
141,33011993.409096554
190,0.0
2,10, 1,10, 0,14, 0.00,60.00,Tuesday
141,35561429.13901452
190,0.0
2,10, 1,10, 0,15, 0.00,60.00,Tuesday
141,37636443.844313346
190,0.0
2,10, 1,10, 0,16, 0.00,60.00,Tuesday
141,38950880.958030775
190,0.0
2,10, 1,10, 0,17, 0.00,60.00,Tuesday
141,40370569.844539545
190,0.0
2,10, 1,10, 0,18, 0.00,60.00,Tuesday
141,42256704.663620844
190,0.0
2,10, 1,10, 0,19, 0.00,60.00,Tuesday
141,43425664.71326996
190,0.0
2,10, 1,10, 0,20, 0.00,60.00,Tuesday
141,44479298.56613171
190,0.0
2,10, 1,10, 0,21, 0.00,60.00,Tuesday
141,46042548.23750448
190,0.0
2,10, 1,10, 0,22, 0.00,60.00,Tuesday
141,47219487.54898371
190,0.0
2,10, 1,10, 0,23, 0.00,60.00,Tuesday
141,47440213.43534156
190,0.0
2,10, 1,10, 0,24, 0.00,60.00,Tuesday
141,48788075.81824832
190,0.0
2,11, 1,11, 0, 1, 0.00,60.00,Wednesday
141,49547787.65187246
190,0.0
2,11, 1,11, 0, 2, 0.00,60.00,Wednesday
141,50293921.52930171
190,0.0
2,11, 1,11, 0, 3, 0.00,60.00,Wednesday
141,51283906.731068395
190,0.0
2,11, 1,11, 0, 4, 0.00,60.00,Wednesday
141,51263392.74493198
190,0.0
2,11, 1,11, 0, 5, 0.00,60.00,Wednesday
141,51303833.983853005
190,0.0
2,11, 1,11, 0, 6, 0.00,60.00,Wednesday
141,51496709.10599545
190,0.0
2,11, 1,11, 0, 7, 0.00,60.00,Wednesday
141,51908743.2144437
190,0.0
2,11, 1,11, 0, 8, 0.00,60.00,Wednesday
141,52285881.88147491
190,0.0
2,11, 1,11, 0, 9, 0.00,60.00,Wednesday
141,52326241.79214837
190,0.0
2,11, 1,11, 0,10, 0.00,60.00,Wednesday
141,52132365.51324391
190,0.0
2,11, 1,11, 0,11, 0.00,60.00,Wednesday
141,51691764.67240833
190,0.0
2,11, 1,11, 0,12, 0.00,60.00,Wednesday
141,50855226.240408935
190,0.0
2,11, 1,11, 0,13, 0.00,60.00,Wednesday
141,50107168.42716942
190,0.0
2,11, 1,11, 0,14, 0.00,60.00,Wednesday
141,49617282.04984773
190,0.0
2,11, 1,11, 0,15, 0.00,60.00,Wednesday
141,49227256.74657012
190,0.0
2,11, 1,11, 0,16, 0.00,60.00,Wednesday
141,48855549.67950978
190,0.0
2,11, 1,11, 0,17, 0.00,60.00,Wednesday
141,47963019.61876091
190,0.0
2,11, 1,11, 0,18, 0.00,60.00,Wednesday
141,47117154.36167473
190,0.0
2,11, 1,11, 0,19, 0.00,60.00,Wednesday
141,46480347.36232228
190,0.0
2,11, 1,11, 0,20, 0.00,60.00,Wednesday
141,46206032.592730165
190,0.0
2,11, 1,11, 0,21, 0.00,60.00,Wednesday
141,46028875.29244752
190,0.0
2,11, 1,11, 0,22, 0.00,60.00,Wednesday
141,44987951.740818374
190,0.0
2,11, 1,11, 0,23, 0.00,60.00,Wednesday
141,44198461.80264555
190,0.0
2,11, 1,11, 0,24, 0.00,60.00,Wednesday
141,44206654.05896863
190,0.0
2,12, 1,12, 0, 1, 0.00,60.00,Thursday
141,44512198.08351363
190,0.0
2,12, 1,12, 0, 2, 0.00,60.00,Thursday
141,44520936.878601424
190,0.0
2,12, 1,12, 0, 3, 0.00,60.00,Thursday
141,44266245.182981305
190,0.0
2,12, 1,12, 0, 4, 0.00,60.00,Thursday
141,44269095.473275654
190,0.0
2,12, 1,12, 0, 5, 0.00,60.00,Thursday
141,44574216.64053977
190,0.0
2,12, 1,12, 0, 6, 0.00,60.00,Thursday
141,45328145.2514493
190,0.0
2,12, 1,12, 0, 7, 0.00,60.00,Thursday
141,45729952.86817696
190,0.0
2,12, 1,12, 0, 8, 0.00,60.00,Thursday
141,45819698.18061991
190,0.0
2,12, 1,12, 0, 9, 0.00,60.00,Thursday
141,45268537.642590865
190,0.0
2,12, 1,12, 0,10, 0.00,60.00,Thursday
141,44083376.8756212
190,0.0
2,12, 1,12, 0,11, 0.00,60.00,Thursday
141,43180332.67533215
190,0.0
2,12, 1,12, 0,12, 0.00,60.00,Thursday
141,42666933.8343472
190,0.0
2,12, 1,12, 0,13, 0.00,60.00,Thursday
141,42014299.50862109
190,0.0
2,12, 1,12, 0,14, 0.00,60.00,Thursday
141,41331484.23579057
190,0.0
2,12, 1,12, 0,15, 0.00,60.00,Thursday
141,41359836.15148281
190,0.0
2,12, 1,12, 0,16, 0.00,60.00,Thursday
141,41703463.429058984
190,0.0
2,12, 1,12, 0,17, 0.00,60.00,Thursday
141,43166832.34140526
190,0.0
2,12, 1,12, 0,18, 0.00,60.00,Thursday
141,44027098.051997185
190,0.0
2,12, 1,12, 0,19, 0.00,60.00,Thursday
141,43711537.63718529
190,0.0
2,12, 1,12, 0,20, 0.00,60.00,Thursday
141,42940865.22554446
190,0.0
2,12, 1,12, 0,21, 0.00,60.00,Thursday
141,42627285.53863139
190,0.0
2,12, 1,12, 0,22, 0.00,60.00,Thursday
141,42078992.86272462
190,0.0
2,12, 1,12, 0,23, 0.00,60.00,Thursday
141,41829460.55829265
190,0.0
2,12, 1,12, 0,24, 0.00,60.00,Thursday
141,41786246.3234877
190,0.0
2,13, 1,13, 0, 1, 0.00,60.00,Friday
141,41330322.50006456
190,0.0
2,13, 1,13, 0, 2, 0.00,60.00,Friday
141,40885228.54799173
190,0.0
2,13, 1,13, 0, 3, 0.00,60.00,Friday
141,40271870.10816009
190,0.0
2,13, 1,13, 0, 4, 0.00,60.00,Friday
141,39839296.69627015
190,0.0
2,13, 1,13, 0, 5, 0.00,60.00,Friday
141,39664200.16912239
190,0.0
2,13, 1,13, 0, 6, 0.00,60.00,Friday
141,39611228.97645997
190,0.0
2,13, 1,13, 0, 7, 0.00,60.00,Friday
141,39775194.60626199
190,0.0
2,13, 1,13, 0, 8, 0.00,60.00,Friday
141,39680735.69345826
190,0.0
2,13, 1,13, 0, 9, 0.00,60.00,Friday
141,39222878.59023788
190,0.0
2,13, 1,13, 0,10, 0.00,60.00,Friday
141,40019707.81813945
190,0.0
2,13, 1,13, 0,11, 0.00,60.00,Friday
141,40947097.645330824
190,0.0
2,13, 1,13, 0,12, 0.00,60.00,Friday
141,40975277.36043389
190,0.0
2,13, 1,13, 0,13, 0.00,60.00,Friday
141,41090228.45594173
190,0.0
2,13, 1,13, 0,14, 0.00,60.00,Friday
141,41729809.771944515
190,0.0
2,13, 1,13, 0,15, 0.00,60.00,Friday
141,42116969.486539915
190,0.0
2,13, 1,13, 0,16, 0.00,60.00,Friday
141,42067366.214570455
190,0.0
2,13, 1,13, 0,17, 0.00,60.00,Friday
141,41929868.82070357
190,0.0
2,13, 1,13, 0,18, 0.00,60.00,Friday
141,41874796.56783901
190,0.0
2,13, 1,13, 0,19, 0.00,60.00,Friday
141,42476054.17546772
190,0.0
2,13, 1,13, 0,20, 0.00,60.00,Friday
141,43522273.16691513
190,0.0
2,13, 1,13, 0,21, 0.00,60.00,Friday
141,44486644.54634338
190,0.0
2,13, 1,13, 0,22, 0.00,60.00,Friday
141,45182952.62939967
190,0.0
2,13, 1,13, 0,23, 0.00,60.00,Friday
141,45164441.52774097
190,0.0
2,13, 1,13, 0,24, 0.00,60.00,Friday
141,47831640.674024776
190,0.0
2,14, 1,14, 0, 1, 0.00,60.00,Saturday
141,49770225.7071472
190,0.0
2,14, 1,14, 0, 2, 0.00,60.00,Saturday
141,49344187.22306143
190,0.0
2,14, 1,14, 0, 3, 0.00,60.00,Saturday
141,49720431.57336993
190,0.0
2,14, 1,14, 0, 4, 0.00,60.00,Saturday
141,49664686.7138753
190,0.0
2,14, 1,14, 0, 5, 0.00,60.00,Saturday
141,49769439.857208684
190,0.0
2,14, 1,14, 0, 6, 0.00,60.00,Saturday
141,51707109.413517
190,0.0
2,14, 1,14, 0, 7, 0.00,60.00,Saturday
141,53242635.91971281
190,0.0
2,14, 1,14, 0, 8, 0.00,60.00,Saturday
141,53072122.02860996
190,0.0
2,14, 1,14, 0, 9, 0.00,60.00,Saturday
141,54080777.84139118
190,0.0
2,14, 1,14, 0,10, 0.00,60.00,Saturday
141,55359249.62333642
190,0.0
2,14, 1,14, 0,11, 0.00,60.00,Saturday
141,55281071.125773035
190,0.0
2,14, 1,14, 0,12, 0.00,60.00,Saturday
141,54955926.91120588
190,0.0
2,14, 1,14, 0,13, 0.00,60.00,Saturday
141,54121978.01258811
190,0.0
2,14, 1,14, 0,14, 0.00,60.00,Saturday
141,52155544.84618682
190,0.0
2,14, 1,14, 0,15, 0.00,60.00,Saturday
141,51899344.617821954
190,0.0
2,14, 1,14, 0,16, 0.00,60.00,Saturday
141,52276377.290662095
190,0.0
2,14, 1,14, 0,17, 0.00,60.00,Saturday
141,52969630.36223552
190,0.0
2,14, 1,14, 0,18, 0.00,60.00,Saturday
141,54431290.70069178
190,0.0
2,14, 1,14, 0,19, 0.00,60.00,Saturday
141,54507896.082146496
190,0.0
2,14, 1,14, 0,20, 0.00,60.00,Saturday
141,54866041.391564116
190,0.0
2,14, 1,14, 0,21, 0.00,60.00,Saturday
141,54807126.91756594
190,0.0
2,14, 1,14, 0,22, 0.00,60.00,Saturday
141,54548372.27067282
190,0.0
2,14, 1,14, 0,23, 0.00,60.00,Saturday
141,54452430.36140062
190,0.0
2,14, 1,14, 0,24, 0.00,60.00,Saturday
141,54567647.30975112
190,0.0
2,15, 1,15, 0, 1, 0.00,60.00,Sunday
141,53885834.756684735
190,0.0
2,15, 1,15, 0, 2, 0.00,60.00,Sunday
141,51887596.413378656
190,0.0
2,15, 1,15, 0, 3, 0.00,60.00,Sunday
141,50957596.35562341
190,0.0
2,15, 1,15, 0, 4, 0.00,60.00,Sunday
141,50266861.28784688
190,0.0
2,15, 1,15, 0, 5, 0.00,60.00,Sunday
141,48854568.862215854
190,0.0
2,15, 1,15, 0, 6, 0.00,60.00,Sunday
141,47286262.894743755
190,0.0
2,15, 1,15, 0, 7, 0.00,60.00,Sunday
141,45666197.25355386
190,0.0
2,15, 1,15, 0, 8, 0.00,60.00,Sunday
141,44476752.628631644
190,0.0
2,15, 1,15, 0, 9, 0.00,60.00,Sunday
141,43468357.06164011
190,0.0
2,15, 1,15, 0,10, 0.00,60.00,Sunday
141,43042206.226156816
190,0.0
2,15, 1,15, 0,11, 0.00,60.00,Sunday
141,43455630.16820194
190,0.0
2,15, 1,15, 0,12, 0.00,60.00,Sunday
141,45061601.04421883
190,0.0
2,15, 1,15, 0,13, 0.00,60.00,Sunday
141,46145328.11880728
190,0.0
2,15, 1,15, 0,14, 0.00,60.00,Sunday
141,46410801.85633674
190,0.0
2,15, 1,15, 0,15, 0.00,60.00,Sunday
141,46388451.68555738
190,0.0
2,15, 1,15, 0,16, 0.00,60.00,Sunday
141,45722106.55251107
190,0.0
2,15, 1,15, 0,17, 0.00,60.00,Sunday
141,45275488.90062734
190,0.0
2,15, 1,15, 0,18, 0.00,60.00,Sunday
141,45326231.71433192
190,0.0
2,15, 1,15, 0,19, 0.00,60.00,Sunday
141,45584545.33006411
190,0.0
2,15, 1,15, 0,20, 0.00,60.00,Sunday
141,45937483.445893355
190,0.0
2,15, 1,15, 0,21, 0.00,60.00,Sunday
141,46804232.229416095
190,0.0
2,15, 1,15, 0,22, 0.00,60.00,Sunday
141,47215400.40146202
190,0.0
2,15, 1,15, 0,23, 0.00,60.00,Sunday
141,47320134.04431825
190,0.0
2,15, 1,15, 0,24, 0.00,60.00,Sunday
141,47654117.33533124
190,0.0
2,16, 1,16, 0, 1, 0.00,60.00,Monday
141,48634748.04946498
190,0.0
2,16, 1,16, 0, 2, 0.00,60.00,Monday
141,49590565.102020375
190,0.0
2,16, 1,16, 0, 3, 0.00,60.00,Monday
141,50212102.61129289
190,0.0
2,16, 1,16, 0, 4, 0.00,60.00,Monday
141,50694626.90142517
190,0.0
2,16, 1,16, 0, 5, 0.00,60.00,Monday
141,51301732.07987239
190,0.0
2,16, 1,16, 0, 6, 0.00,60.00,Monday
141,51808152.063293226
190,0.0
2,16, 1,16, 0, 7, 0.00,60.00,Monday
141,52731695.95877949
190,0.0
2,16, 1,16, 0, 8, 0.00,60.00,Monday
141,53591552.56159184
190,0.0
2,16, 1,16, 0, 9, 0.00,60.00,Monday
141,53986224.25575821
190,0.0
2,16, 1,16, 0,10, 0.00,60.00,Monday
141,54046638.59261937
190,0.0
2,16, 1,16, 0,11, 0.00,60.00,Monday
141,52308063.24040725
190,0.0
2,16, 1,16, 0,12, 0.00,60.00,Monday
141,50744843.9324234
190,0.0
2,16, 1,16, 0,13, 0.00,60.00,Monday
141,49441689.64370824
190,0.0
2,16, 1,16, 0,14, 0.00,60.00,Monday
141,48475219.894426584
190,0.0
2,16, 1,16, 0,15, 0.00,60.00,Monday
141,48262439.72953198
190,0.0
2,16, 1,16, 0,16, 0.00,60.00,Monday
141,48572471.502860375
190,0.0
2,16, 1,16, 0,17, 0.00,60.00,Monday
141,49465843.92266406
190,0.0
2,16, 1,16, 0,18, 0.00,60.00,Monday
141,51193728.76542044
190,0.0
2,16, 1,16, 0,19, 0.00,60.00,Monday
141,52993028.08059019
190,0.0
2,16, 1,16, 0,20, 0.00,60.00,Monday
141,53887369.42583479
190,0.0
2,16, 1,16, 0,21, 0.00,60.00,Monday
141,54580679.85427199
190,0.0
2,16, 1,16, 0,22, 0.00,60.00,Monday
141,55207030.15401328
190,0.0
2,16, 1,16, 0,23, 0.00,60.00,Monday
141,56165076.225381576
190,0.0
2,16, 1,16, 0,24, 0.00,60.00,Monday
141,56358904.169665545
190,0.0
2,17, 1,17, 0, 1, 0.00,60.00,Tuesday
141,56664031.92676334
190,0.0
2,17, 1,17, 0, 2, 0.00,60.00,Tuesday
141,57940633.35496021
190,0.0
2,17, 1,17, 0, 3, 0.00,60.00,Tuesday
141,59096007.32451394
190,0.0
2,17, 1,17, 0, 4, 0.00,60.00,Tuesday
141,60137302.94807146
190,0.0
2,17, 1,17, 0, 5, 0.00,60.00,Tuesday
141,61275781.04411841
190,0.0
2,17, 1,17, 0, 6, 0.00,60.00,Tuesday
141,62409390.07568562
190,0.0
2,17, 1,17, 0, 7, 0.00,60.00,Tuesday
141,63151574.933311984
190,0.0
2,17, 1,17, 0, 8, 0.00,60.00,Tuesday
141,63624572.08403044
190,0.0
2,17, 1,17, 0, 9, 0.00,60.00,Tuesday
141,63854334.927583344
190,0.0
2,17, 1,17, 0,10, 0.00,60.00,Tuesday
141,61971457.16630329
190,0.0
2,17, 1,17, 0,11, 0.00,60.00,Tuesday
141,59106148.06295988
190,0.0
2,17, 1,17, 0,12, 0.00,60.00,Tuesday
141,56596922.21488209
190,0.0
2,17, 1,17, 0,13, 0.00,60.00,Tuesday
141,55032238.55033331
190,0.0
2,17, 1,17, 0,14, 0.00,60.00,Tuesday
141,54467371.25906418
190,0.0
2,17, 1,17, 0,15, 0.00,60.00,Tuesday
141,54549405.52306228
190,0.0
2,17, 1,17, 0,16, 0.00,60.00,Tuesday
141,55480351.00481072
190,0.0
2,17, 1,17, 0,17, 0.00,60.00,Tuesday
141,56059288.700614095
190,0.0
2,17, 1,17, 0,18, 0.00,60.00,Tuesday
141,55626452.53757194
190,0.0
2,17, 1,17, 0,19, 0.00,60.00,Tuesday
141,55071304.948537126
190,0.0
2,17, 1,17, 0,20, 0.00,60.00,Tuesday
141,55025983.866445854
190,0.0
2,17, 1,17, 0,21, 0.00,60.00,Tuesday
141,55302536.95582688
190,0.0
2,17, 1,17, 0,22, 0.00,60.00,Tuesday
141,55304524.24348724
190,0.0
2,17, 1,17, 0,23, 0.00,60.00,Tuesday
141,55369860.18519442
190,0.0
2,17, 1,17, 0,24, 0.00,60.00,Tuesday
141,56060226.982613
190,0.0
2,18, 1,18, 0, 1, 0.00,60.00,Wednesday
141,56576533.48267284
190,0.0
2,18, 1,18, 0, 2, 0.00,60.00,Wednesday
141,57063283.80853768
190,0.0
2,18, 1,18, 0, 3, 0.00,60.00,Wednesday
141,57421706.06201352
190,0.0
2,18, 1,18, 0, 4, 0.00,60.00,Wednesday
141,57657127.84047789
190,0.0
2,18, 1,18, 0, 5, 0.00,60.00,Wednesday
141,57962700.31353682
190,0.0
2,18, 1,18, 0, 6, 0.00,60.00,Wednesday
141,58352494.691018745
190,0.0
2,18, 1,18, 0, 7, 0.00,60.00,Wednesday
141,59552554.11975992
190,0.0
2,18, 1,18, 0, 8, 0.00,60.00,Wednesday
141,59995310.58616498
190,0.0
2,18, 1,18, 0, 9, 0.00,60.00,Wednesday
141,60266711.39678869
190,0.0
2,18, 1,18, 0,10, 0.00,60.00,Wednesday
141,60289450.65164606
190,0.0
2,18, 1,18, 0,11, 0.00,60.00,Wednesday
141,59366167.7166366
190,0.0
2,18, 1,18, 0,12, 0.00,60.00,Wednesday
141,58652411.592951566
190,0.0
2,18, 1,18, 0,13, 0.00,60.00,Wednesday
141,59014868.300898075
190,0.0
2,18, 1,18, 0,14, 0.00,60.00,Wednesday
141,59742618.47120582
190,0.0
2,18, 1,18, 0,15, 0.00,60.00,Wednesday
141,60085674.52454374
190,0.0
2,18, 1,18, 0,16, 0.00,60.00,Wednesday
141,60865666.454829924
190,0.0
2,18, 1,18, 0,17, 0.00,60.00,Wednesday
141,61209243.16130301
190,0.0
2,18, 1,18, 0,18, 0.00,60.00,Wednesday
141,60803013.178713284
190,0.0
2,18, 1,18, 0,19, 0.00,60.00,Wednesday
141,60602184.72912206
190,0.0
2,18, 1,18, 0,20, 0.00,60.00,Wednesday
141,60745429.562311664
190,0.0
2,18, 1,18, 0,21, 0.00,60.00,Wednesday
141,60859872.92912718
190,0.0
2,18, 1,18, 0,22, 0.00,60.00,Wednesday
141,61146655.844494894
190,0.0
2,18, 1,18, 0,23, 0.00,60.00,Wednesday
141,61352378.31940726
190,0.0
2,18, 1,18, 0,24, 0.00,60.00,Wednesday
141,61621408.37022583
190,0.0
2,19, 1,19, 0, 1, 0.00,60.00,Thursday
141,61297339.99219483
190,0.0
2,19, 1,19, 0, 2, 0.00,60.00,Thursday
141,61443195.602681845
190,0.0
2,19, 1,19, 0, 3, 0.00,60.00,Thursday
141,62320409.494973995