Program Version,EnergyPlus, Version 24.2.0-94a887817b, YMD=2025.04.24 13:20
1,5,Environment Title[],Latitude[deg],Longitude[deg],Time Zone[],Elevation[m]
2,8,Day of Simulation[],Month[],Day of Month[],DST Indicator[1=yes 0=no],Hour[],StartMinute[],EndMinute[],DayType
3,5,Cumulative Day of Simulation[],Month[],Day of Month[],DST Indicator[1=yes 0=no],DayType  ! When Daily Report Variables Requested
4,2,Cumulative Days of Simulation[],Month[]  ! When Monthly Report Variables Requested
5,1,Cumulative Days of Simulation[] ! When Run Period Report Variables Requested
6,1,Calendar Year of Simulation[] ! When Annual Report Variables Requested
141,1,ZONE_0599100000244620 IDEAL LOADS AIR SYSTEM,Zone Ideal Loads Supply Air Total Heating Energy [J] !Hourly
190,1,ZONE_0599100000244620 IDEAL LOADS AIR SYSTEM,Zone Ideal Loads Supply Air Total Cooling Energy [J] !Hourly
End of Data Dictionary
1,RUN PERIOD 1,  51.96,   4.45,   1.00,  -4.50
2,1, 1, 1, 0, 1, 0.00,60.00,Sunday
141,101138424.71307111
190,0.0
2,1, 1, 1, 0, 2, 0.00,60.00,Sunday
141,104169339.39437112
190,0.0
2,1, 1, 1, 0, 3, 0.00,60.00,Sunday
141,104219692.06576458
190,0.0
2,1, 1, 1, 0, 4, 0.00,60.00,Sunday
141,106497159.25358513
190,0.0
2,1, 1, 1, 0, 5, 0.00,60.00,Sunday
141,108137247.75678653
190,0.0
2,1, 1, 1, 0, 6, 0.00,60.00,Sunday
141,108520263.37102263
190,0.0
2,1, 1, 1, 0, 7, 0.00,60.00,Sunday
141,109055241.15806518
190,0.0
2,1, 1, 1, 0, 8, 0.00,60.00,Sunday
141,109175053.61776823
190,0.0
2,1, 1, 1, 0, 9, 0.00,60.00,Sunday
141,109354236.19965357
190,0.0
2,1, 1, 1, 0,10, 0.00,60.00,Sunday
141,109029030.63249989
190,0.0
2,1, 1, 1, 0,11, 0.00,60.00,Sunday
141,107600245.69638744
190,0.0
2,1, 1, 1, 0,12, 0.00,60.00,Sunday
141,104986954.64155445
190,0.0
2,1, 1, 1, 0,13, 0.00,60.00,Sunday
141,103697111.89303763
190,0.0
2,1, 1, 1, 0,14, 0.00,60.00,Sunday
141,101606272.52484225
190,0.0
2,1, 1, 1, 0,15, 0.00,60.00,Sunday
141,99835997.33143336
190,0.0
2,1, 1, 1, 0,16, 0.00,60.00,Sunday
141,100565993.87330544
190,0.0
2,1, 1, 1, 0,17, 0.00,60.00,Sunday
141,101551542.80914477
190,0.0
2,1, 1, 1, 0,18, 0.00,60.00,Sunday
141,101427276.6289818
190,0.0
2,1, 1, 1, 0,19, 0.00,60.00,Sunday
141,101379948.95219472
190,0.0
2,1, 1, 1, 0,20, 0.00,60.00,Sunday
141,100945918.02564904
190,0.0
2,1, 1, 1, 0,21, 0.00,60.00,Sunday
141,100481552.48091096
190,0.0
2,1, 1, 1, 0,22, 0.00,60.00,Sunday
141,100607099.03941834
190,0.0
2,1, 1, 1, 0,23, 0.00,60.00,Sunday
141,98588705.12087235
190,0.0
2,1, 1, 1, 0,24, 0.00,60.00,Sunday
141,97149435.06940007
190,0.0
2,2, 1, 2, 0, 1, 0.00,60.00,Monday
141,97521839.59714228
190,0.0
2,2, 1, 2, 0, 2, 0.00,60.00,Monday
141,95551354.29160775
190,0.0
2,2, 1, 2, 0, 3, 0.00,60.00,Monday
141,94032830.88790195
190,0.0
2,2, 1, 2, 0, 4, 0.00,60.00,Monday
141,92453166.86085117
190,0.0
2,2, 1, 2, 0, 5, 0.00,60.00,Monday
141,88910500.95085195
190,0.0
2,2, 1, 2, 0, 6, 0.00,60.00,Monday
141,87139840.6480778
190,0.0
2,2, 1, 2, 0, 7, 0.00,60.00,Monday
141,84338824.23194557
190,0.0
2,2, 1, 2, 0, 8, 0.00,60.00,Monday
141,80876956.38896689
190,0.0
2,2, 1, 2, 0, 9, 0.00,60.00,Monday
141,81515547.4595979
190,0.0
2,2, 1, 2, 0,10, 0.00,60.00,Monday
141,83472611.36238144
190,0.0
2,2, 1, 2, 0,11, 0.00,60.00,Monday
141,84599131.75209105
190,0.0
2,2, 1, 2, 0,12, 0.00,60.00,Monday
141,82728223.05377498
190,0.0
2,2, 1, 2, 0,13, 0.00,60.00,Monday
141,81781255.83074783
190,0.0
2,2, 1, 2, 0,14, 0.00,60.00,Monday
141,83248174.40837575
190,0.0
2,2, 1, 2, 0,15, 0.00,60.00,Monday
141,83919418.25073092
190,0.0
2,2, 1, 2, 0,16, 0.00,60.00,Monday
141,85535860.44458733
190,0.0
2,2, 1, 2, 0,17, 0.00,60.00,Monday
141,87203989.84107968
190,0.0
2,2, 1, 2, 0,18, 0.00,60.00,Monday
141,87700423.33809099
190,0.0
2,2, 1, 2, 0,19, 0.00,60.00,Monday
141,89665752.28330968
190,0.0
2,2, 1, 2, 0,20, 0.00,60.00,Monday
141,91545158.46143441
190,0.0
2,2, 1, 2, 0,21, 0.00,60.00,Monday
141,92169678.75535795
190,0.0
2,2, 1, 2, 0,22, 0.00,60.00,Monday
141,92531768.23869157
190,0.0
2,2, 1, 2, 0,23, 0.00,60.00,Monday
141,93034905.05250522
190,0.0
2,2, 1, 2, 0,24, 0.00,60.00,Monday
141,93584043.28125265
190,0.0
2,3, 1, 3, 0, 1, 0.00,60.00,Tuesday
141,94172514.69538304
190,0.0
2,3, 1, 3, 0, 2, 0.00,60.00,Tuesday
141,94591591.04666941
190,0.0
2,3, 1, 3, 0, 3, 0.00,60.00,Tuesday
141,94916609.5630312
190,0.0
2,3, 1, 3, 0, 4, 0.00,60.00,Tuesday
141,95465230.73471317
190,0.0
2,3, 1, 3, 0, 5, 0.00,60.00,Tuesday
141,97594542.3095433
190,0.0
2,3, 1, 3, 0, 6, 0.00,60.00,Tuesday
141,98918768.55293313
190,0.0
2,3, 1, 3, 0, 7, 0.00,60.00,Tuesday
141,99499155.03706151
190,0.0
2,3, 1, 3, 0, 8, 0.00,60.00,Tuesday
141,99245590.33955482
190,0.0
2,3, 1, 3, 0, 9, 0.00,60.00,Tuesday
141,100733069.28972307
190,0.0
2,3, 1, 3, 0,10, 0.00,60.00,Tuesday
141,101383726.3521227
190,0.0
2,3, 1, 3, 0,11, 0.00,60.00,Tuesday
141,101460208.58518282
190,0.0
2,3, 1, 3, 0,12, 0.00,60.00,Tuesday
141,101840010.01624094
190,0.0
2,3, 1, 3, 0,13, 0.00,60.00,Tuesday
141,104247540.38212137
190,0.0
2,3, 1, 3, 0,14, 0.00,60.00,Tuesday
141,105617715.1926123
190,0.0
2,3, 1, 3, 0,15, 0.00,60.00,Tuesday
141,105357561.40912315
190,0.0
2,3, 1, 3, 0,16, 0.00,60.00,Tuesday
141,105097781.80326404
190,0.0
2,3, 1, 3, 0,17, 0.00,60.00,Tuesday
141,105151273.56081477
190,0.0
2,3, 1, 3, 0,18, 0.00,60.00,Tuesday
141,105289789.12918678
190,0.0
2,3, 1, 3, 0,19, 0.00,60.00,Tuesday
141,104809686.84972015
190,0.0
2,3, 1, 3, 0,20, 0.00,60.00,Tuesday
141,102792562.29705495
190,0.0
2,3, 1, 3, 0,21, 0.00,60.00,Tuesday
141,97541613.25128792
190,0.0
2,3, 1, 3, 0,22, 0.00,60.00,Tuesday
141,94821215.2880065
190,0.0
2,3, 1, 3, 0,23, 0.00,60.00,Tuesday
141,96986697.69797157
190,0.0
2,3, 1, 3, 0,24, 0.00,60.00,Tuesday
141,100571330.22985984
190,0.0
2,4, 1, 4, 0, 1, 0.00,60.00,Wednesday
141,102427408.37560563
190,0.0
2,4, 1, 4, 0, 2, 0.00,60.00,Wednesday
141,102357653.93789741
190,0.0
2,4, 1, 4, 0, 3, 0.00,60.00,Wednesday
141,102124924.85492918
190,0.0
2,4, 1, 4, 0, 4, 0.00,60.00,Wednesday
141,103009956.76050222
190,0.0
2,4, 1, 4, 0, 5, 0.00,60.00,Wednesday
141,105542226.26822889
190,0.0
2,4, 1, 4, 0, 6, 0.00,60.00,Wednesday
141,105161703.13967845
190,0.0
2,4, 1, 4, 0, 7, 0.00,60.00,Wednesday
141,105194616.33969338
190,0.0
2,4, 1, 4, 0, 8, 0.00,60.00,Wednesday
141,106186740.19590405
190,0.0
2,4, 1, 4, 0, 9, 0.00,60.00,Wednesday
141,106891267.63902682
190,0.0
2,4, 1, 4, 0,10, 0.00,60.00,Wednesday
141,107454462.60916907
190,0.0
2,4, 1, 4, 0,11, 0.00,60.00,Wednesday
141,103445708.09311162
190,0.0
2,4, 1, 4, 0,12, 0.00,60.00,Wednesday
141,96704827.77561155
190,0.0
2,4, 1, 4, 0,13, 0.00,60.00,Wednesday
141,95078917.01070276
190,0.0
2,4, 1, 4, 0,14, 0.00,60.00,Wednesday
141,95009685.08162414
190,0.0
2,4, 1, 4, 0,15, 0.00,60.00,Wednesday
141,94397466.23081097
190,0.0
2,4, 1, 4, 0,16, 0.00,60.00,Wednesday
141,97163448.93399392
190,0.0
2,4, 1, 4, 0,17, 0.00,60.00,Wednesday
141,102095902.34057562
190,0.0
2,4, 1, 4, 0,18, 0.00,60.00,Wednesday
141,106322161.07658675
190,0.0
2,4, 1, 4, 0,19, 0.00,60.00,Wednesday
141,110659663.81310143
190,0.0
2,4, 1, 4, 0,20, 0.00,60.00,Wednesday
141,112971429.7154556
190,0.0
2,4, 1, 4, 0,21, 0.00,60.00,Wednesday
141,114151063.83603466
190,0.0
2,4, 1, 4, 0,22, 0.00,60.00,Wednesday
141,116604544.36404806
190,0.0
2,4, 1, 4, 0,23, 0.00,60.00,Wednesday
141,116078489.68651703
190,0.0
2,4, 1, 4, 0,24, 0.00,60.00,Wednesday
141,115016836.61214441
190,0.0
2,5, 1, 5, 0, 1, 0.00,60.00,Thursday
141,116189747.92854068
190,0.0
2,5, 1, 5, 0, 2, 0.00,60.00,Thursday
141,115680968.71962973
190,0.0
2,5, 1, 5, 0, 3, 0.00,60.00,Thursday
141,115151455.40849522
190,0.0
2,5, 1, 5, 0, 4, 0.00,60.00,Thursday
141,115804530.92354974
190,0.0
2,5, 1, 5, 0, 5, 0.00,60.00,Thursday
141,114917993.55294847
190,0.0
2,5, 1, 5, 0, 6, 0.00,60.00,Thursday
141,114619677.25991291
190,0.0
2,5, 1, 5, 0, 7, 0.00,60.00,Thursday
141,115534998.22278613
190,0.0
2,5, 1, 5, 0, 8, 0.00,60.00,Thursday
141,116258773.9783245
190,0.0
2,5, 1, 5, 0, 9, 0.00,60.00,Thursday
141,116448044.96181394
190,0.0
2,5, 1, 5, 0,10, 0.00,60.00,Thursday
141,117662031.56496942
190,0.0
2,5, 1, 5, 0,11, 0.00,60.00,Thursday
141,117148837.33097062
190,0.0
2,5, 1, 5, 0,12, 0.00,60.00,Thursday
141,113960939.6969094
190,0.0
2,5, 1, 5, 0,13, 0.00,60.00,Thursday
141,112561113.49356033
190,0.0
2,5, 1, 5, 0,14, 0.00,60.00,Thursday
141,109890326.22805339
190,0.0
2,5, 1, 5, 0,15, 0.00,60.00,Thursday
141,107485458.73847735
190,0.0
2,5, 1, 5, 0,16, 0.00,60.00,Thursday
141,108033604.00657086
190,0.0
2,5, 1, 5, 0,17, 0.00,60.00,Thursday
141,106822370.29943804
190,0.0
2,5, 1, 5, 0,18, 0.00,60.00,Thursday
141,105087186.05433208
190,0.0
2,5, 1, 5, 0,19, 0.00,60.00,Thursday
141,104888167.93651418
190,0.0
2,5, 1, 5, 0,20, 0.00,60.00,Thursday
141,104188776.48121928
190,0.0
2,5, 1, 5, 0,21, 0.00,60.00,Thursday
141,103384535.3677955
190,0.0
2,5, 1, 5, 0,22, 0.00,60.00,Thursday
141,103047422.93404716
190,0.0
2,5, 1, 5, 0,23, 0.00,60.00,Thursday
141,103170921.74211532
190,0.0
2,5, 1, 5, 0,24, 0.00,60.00,Thursday
141,103390871.53349091
190,0.0
2,6, 1, 6, 0, 1, 0.00,60.00,Friday
141,103484637.11660513
190,0.0
2,6, 1, 6, 0, 2, 0.00,60.00,Friday
141,103590334.40979604
190,0.0
2,6, 1, 6, 0, 3, 0.00,60.00,Friday
141,105381138.38596916
190,0.0
2,6, 1, 6, 0, 4, 0.00,60.00,Friday
141,107134038.40918991
190,0.0
2,6, 1, 6, 0, 5, 0.00,60.00,Friday
141,108007520.25200607
190,0.0
2,6, 1, 6, 0, 6, 0.00,60.00,Friday
141,109142815.92173944
190,0.0
2,6, 1, 6, 0, 7, 0.00,60.00,Friday
141,110914499.81870484
190,0.0
2,6, 1, 6, 0, 8, 0.00,60.00,Friday
141,112653973.53568181
190,0.0
2,6, 1, 6, 0, 9, 0.00,60.00,Friday
141,114812594.93179521
190,0.0
2,6, 1, 6, 0,10, 0.00,60.00,Friday
141,116222352.38769014
190,0.0
2,6, 1, 6, 0,11, 0.00,60.00,Friday
141,115141917.92401128
190,0.0
2,6, 1, 6, 0,12, 0.00,60.00,Friday
141,113332454.70010768
190,0.0
2,6, 1, 6, 0,13, 0.00,60.00,Friday
141,112576464.35355887
190,0.0
2,6, 1, 6, 0,14, 0.00,60.00,Friday
141,112263317.4353497
190,0.0
2,6, 1, 6, 0,15, 0.00,60.00,Friday
141,111588244.31942517
190,0.0
2,6, 1, 6, 0,16, 0.00,60.00,Friday
141,109987875.46324411
190,0.0
2,6, 1, 6, 0,17, 0.00,60.00,Friday
141,108273687.46850576
190,0.0
2,6, 1, 6, 0,18, 0.00,60.00,Friday
141,107322884.8856874
190,0.0
2,6, 1, 6, 0,19, 0.00,60.00,Friday
141,106371723.18069535
190,0.0
2,6, 1, 6, 0,20, 0.00,60.00,Friday
141,104481783.065836
190,0.0
2,6, 1, 6, 0,21, 0.00,60.00,Friday
141,99975680.24162225
190,0.0
2,6, 1, 6, 0,22, 0.00,60.00,Friday
141,94653585.45340139
190,0.0
2,6, 1, 6, 0,23, 0.00,60.00,Friday
141,92412462.37045962
190,0.0
2,6, 1, 6, 0,24, 0.00,60.00,Friday
141,93135135.69963862
190,0.0
2,7, 1, 7, 0, 1, 0.00,60.00,Saturday
141,97634750.19707611
190,0.0
2,7, 1, 7, 0, 2, 0.00,60.00,Saturday
141,102035344.9047637
190,0.0
2,7, 1, 7, 0, 3, 0.00,60.00,Saturday
141,101342920.77005145
190,0.0
2,7, 1, 7, 0, 4, 0.00,60.00,Saturday
141,101639472.31743714
190,0.0
2,7, 1, 7, 0, 5, 0.00,60.00,Saturday
141,104627869.24964485
190,0.0
2,7, 1, 7, 0, 6, 0.00,60.00,Saturday
141,106980670.0214755
190,0.0
2,7, 1, 7, 0, 7, 0.00,60.00,Saturday
141,108379800.98861223
190,0.0
2,7, 1, 7, 0, 8, 0.00,60.00,Saturday
141,109117162.22840883
190,0.0
2,7, 1, 7, 0, 9, 0.00,60.00,Saturday
141,107534544.17761739
190,0.0
2,7, 1, 7, 0,10, 0.00,60.00,Saturday
141,106191245.70506996
190,0.0
2,7, 1, 7, 0,11, 0.00,60.00,Saturday
141,101954189.32640545
190,0.0
2,7, 1, 7, 0,12, 0.00,60.00,Saturday
141,97622159.30020095
190,0.0
2,7, 1, 7, 0,13, 0.00,60.00,Saturday
141,94283894.14933279
190,0.0
2,7, 1, 7, 0,14, 0.00,60.00,Saturday
141,92207402.32116956
190,0.0
2,7, 1, 7, 0,15, 0.00,60.00,Saturday
141,92142473.63374984
190,0.0
2,7, 1, 7, 0,16, 0.00,60.00,Saturday
141,92611187.85838343
190,0.0
2,7, 1, 7, 0,17, 0.00,60.00,Saturday
141,92743392.21609487
190,0.0
2,7, 1, 7, 0,18, 0.00,60.00,Saturday
141,93892197.12748547
190,0.0
2,7, 1, 7, 0,19, 0.00,60.00,Saturday
141,95109486.65089211
190,0.0
2,7, 1, 7, 0,20, 0.00,60.00,Saturday
141,96508327.16087893
190,0.0
2,7, 1, 7, 0,21, 0.00,60.00,Saturday
141,97584291.66792169
190,0.0
2,7, 1, 7, 0,22, 0.00,60.00,Saturday
141,97514064.14079355
190,0.0
2,7, 1, 7, 0,23, 0.00,60.00,Saturday
141,97805623.47081852
190,0.0
2,7, 1, 7, 0,24, 0.00,60.00,Saturday
141,97879516.03811626
190,0.0
2,8, 1, 8, 0, 1, 0.00,60.00,Sunday
141,96952158.49814868
190,0.0
2,8, 1, 8, 0, 2, 0.00,60.00,Sunday
141,95966446.69643769
190,0.0
2,8, 1, 8, 0, 3, 0.00,60.00,Sunday
141,95217892.77880213
190,0.0
2,8, 1, 8, 0, 4, 0.00,60.00,Sunday
141,93868926.06569225
190,0.0
2,8, 1, 8, 0, 5, 0.00,60.00,Sunday
141,92001285.21462388
190,0.0
2,8, 1, 8, 0, 6, 0.00,60.00,Sunday
141,90599483.04845951
190,0.0
2,8, 1, 8, 0, 7, 0.00,60.00,Sunday
141,89471498.21996349
190,0.0
2,8, 1, 8, 0, 8, 0.00,60.00,Sunday
141,88389396.19235942
190,0.0
2,8, 1, 8, 0, 9, 0.00,60.00,Sunday
141,87114580.48312674
190,0.0
2,8, 1, 8, 0,10, 0.00,60.00,Sunday
141,86578175.46880034
190,0.0
2,8, 1, 8, 0,11, 0.00,60.00,Sunday
141,86042820.96364228
190,0.0
2,8, 1, 8, 0,12, 0.00,60.00,Sunday
141,85996544.20887677
190,0.0
2,8, 1, 8, 0,13, 0.00,60.00,Sunday
141,85408447.52755944
190,0.0
2,8, 1, 8, 0,14, 0.00,60.00,Sunday
141,85330088.74462995
190,0.0
2,8, 1, 8, 0,15, 0.00,60.00,Sunday
141,87713224.19761024
190,0.0
2,8, 1, 8, 0,16, 0.00,60.00,Sunday
141,89388904.30337602
190,0.0
2,8, 1, 8, 0,17, 0.00,60.00,Sunday
141,89270547.02859211
190,0.0
2,8, 1, 8, 0,18, 0.00,60.00,Sunday
141,90038008.32458323
190,0.0
2,8, 1, 8, 0,19, 0.00,60.00,Sunday
141,89579434.17023626
190,0.0
2,8, 1, 8, 0,20, 0.00,60.00,Sunday
141,88018736.67574498
190,0.0
2,8, 1, 8, 0,21, 0.00,60.00,Sunday
141,86962562.63427968
190,0.0
2,8, 1, 8, 0,22, 0.00,60.00,Sunday
141,87465951.94842164
190,0.0
2,8, 1, 8, 0,23, 0.00,60.00,Sunday
141,87961140.29125407
190,0.0
2,8, 1, 8, 0,24, 0.00,60.00,Sunday
141,89114494.12148032
190,0.0
2,9, 1, 9, 0, 1, 0.00,60.00,Monday
141,89472675.11335203
190,0.0
2,9, 1, 9, 0, 2, 0.00,60.00,Monday
141,89762870.62360546
190,0.0
2,9, 1, 9, 0, 3, 0.00,60.00,Monday
141,89714293.83354333
190,0.0
2,9, 1, 9, 0, 4, 0.00,60.00,Monday
141,89296343.7277299
190,0.0
2,9, 1, 9, 0, 5, 0.00,60.00,Monday
141,88094907.0151847
190,0.0
2,9, 1, 9, 0, 6, 0.00,60.00,Monday
141,86821579.13293639
190,0.0
2,9, 1, 9, 0, 7, 0.00,60.00,Monday
141,85864981.14648156
190,0.0
2,9, 1, 9, 0, 8, 0.00,60.00,Monday
141,85291416.9404361
190,0.0
2,9, 1, 9, 0, 9, 0.00,60.00,Monday
141,83721224.14105943
190,0.0
2,9, 1, 9, 0,10, 0.00,60.00,Monday
141,80005272.85973233
190,0.0
2,9, 1, 9, 0,11, 0.00,60.00,Monday
141,76809694.37649193
190,0.0
2,9, 1, 9, 0,12, 0.00,60.00,Monday
141,74951992.4502399
190,0.0
2,9, 1, 9, 0,13, 0.00,60.00,Monday
141,73318551.7397479
190,0.0
2,9, 1, 9, 0,14, 0.00,60.00,Monday
141,71970107.30632941
190,0.0
2,9, 1, 9, 0,15, 0.00,60.00,Monday
141,71214071.62297867
190,0.0
2,9, 1, 9, 0,16, 0.00,60.00,Monday
141,71499226.08416617
190,0.0
2,9, 1, 9, 0,17, 0.00,60.00,Monday
141,73516071.59773383
190,0.0
2,9, 1, 9, 0,18, 0.00,60.00,Monday
141,75454175.94509763
190,0.0
2,9, 1, 9, 0,19, 0.00,60.00,Monday
141,74990823.37789297
190,0.0
2,9, 1, 9, 0,20, 0.00,60.00,Monday
141,71570861.58765192
190,0.0
2,9, 1, 9, 0,21, 0.00,60.00,Monday
141,68137778.91932032
190,0.0
2,9, 1, 9, 0,22, 0.00,60.00,Monday
141,65927395.83377444
190,0.0
2,9, 1, 9, 0,23, 0.00,60.00,Monday
141,65253338.32246965
190,0.0
2,9, 1, 9, 0,24, 0.00,60.00,Monday
141,65055937.66054945
190,0.0
2,10, 1,10, 0, 1, 0.00,60.00,Tuesday
141,65459073.53101602
190,0.0
2,10, 1,10, 0, 2, 0.00,60.00,Tuesday
141,65534398.02622694
190,0.0
2,10, 1,10, 0, 3, 0.00,60.00,Tuesday
141,65104780.28216381
190,0.0
2,10, 1,10, 0, 4, 0.00,60.00,Tuesday
141,65578591.86325157
190,0.0
2,10, 1,10, 0, 5, 0.00,60.00,Tuesday
141,65454814.77668282
190,0.0
2,10, 1,10, 0, 6, 0.00,60.00,Tuesday
141,65130900.23027772
190,0.0
2,10, 1,10, 0, 7, 0.00,60.00,Tuesday
141,64888675.83390196
190,0.0
2,10, 1,10, 0, 8, 0.00,60.00,Tuesday
141,64226567.61610565
190,0.0
2,10, 1,10, 0, 9, 0.00,60.00,Tuesday
141,63466004.85630419
190,0.0
2,10, 1,10, 0,10, 0.00,60.00,Tuesday
141,62569461.00333862
190,0.0
2,10, 1,10, 0,11, 0.00,60.00,Tuesday
141,61393658.955689035
190,0.0
2,10, 1,10, 0,12, 0.00,60.00,Tuesday
141,60093756.690657556
190,0.0
2,10, 1,10, 0,13, 0.00,60.00,Tuesday
141,59755139.75338672
190,0.0
2,10, 1,10, 0,14, 0.00,60.00,Tuesday
141,63794487.668445334
190,0.0
2,10, 1,10, 0,15, 0.00,60.00,Tuesday
141,67080738.37497584
190,0.0
2,10, 1,10, 0,16, 0.00,60.00,Tuesday
141,69164503.8216269
190,0.0
2,10, 1,10, 0,17, 0.00,60.00,Tuesday
141,71454685.72092962
190,0.0
2,10, 1,10, 0,18, 0.00,60.00,Tuesday
141,74538231.69001111
190,0.0
2,10, 1,10, 0,19, 0.00,60.00,Tuesday
141,76517712.2193355
190,0.0
2,10, 1,10, 0,20, 0.00,60.00,Tuesday
141,78370898.7416907
190,0.0
2,10, 1,10, 0,21, 0.00,60.00,Tuesday
141,81102769.7973239
190,0.0
2,10, 1,10, 0,22, 0.00,60.00,Tuesday
141,83255210.27351621
190,0.0
2,10, 1,10, 0,23, 0.00,60.00,Tuesday
141,83895581.6637894
190,0.0
2,10, 1,10, 0,24, 0.00,60.00,Tuesday
141,86370336.27452254
190,0.0
2,11, 1,11, 0, 1, 0.00,60.00,Wednesday
141,87905148.89149323
190,0.0
2,11, 1,11, 0, 2, 0.00,60.00,Wednesday
141,89415882.87126958
190,0.0
2,11, 1,11, 0, 3, 0.00,60.00,Wednesday
141,91304520.78095718
190,0.0
2,11, 1,11, 0, 4, 0.00,60.00,Wednesday
141,91529422.15055452
190,0.0
2,11, 1,11, 0, 5, 0.00,60.00,Wednesday
141,91805278.40531898
190,0.0
2,11, 1,11, 0, 6, 0.00,60.00,Wednesday
141,92281131.0029286
190,0.0
2,11, 1,11, 0, 7, 0.00,60.00,Wednesday
141,93071201.03590418
190,0.0
2,11, 1,11, 0, 8, 0.00,60.00,Wednesday
141,93773200.17644745
190,0.0
2,11, 1,11, 0, 9, 0.00,60.00,Wednesday
141,93907649.89433235
190,0.0
2,11, 1,11, 0,10, 0.00,60.00,Wednesday
141,93647987.70226693
190,0.0
2,11, 1,11, 0,11, 0.00,60.00,Wednesday
141,92978076.48216093
190,0.0
2,11, 1,11, 0,12, 0.00,60.00,Wednesday
141,91653622.2166411
190,0.0
2,11, 1,11, 0,13, 0.00,60.00,Wednesday
141,90440159.0476143
190,0.0
2,11, 1,11, 0,14, 0.00,60.00,Wednesday
141,89591032.69487052
190,0.0
2,11, 1,11, 0,15, 0.00,60.00,Wednesday
141,88844289.85963012
190,0.0
2,11, 1,11, 0,16, 0.00,60.00,Wednesday
141,88088131.39217469
190,0.0
2,11, 1,11, 0,17, 0.00,60.00,Wednesday
141,86486769.53075628
190,0.0
2,11, 1,11, 0,18, 0.00,60.00,Wednesday
141,84980774.03371039
190,0.0
2,11, 1,11, 0,19, 0.00,60.00,Wednesday
141,83842680.69776183
190,0.0
2,11, 1,11, 0,20, 0.00,60.00,Wednesday
141,83318737.1337885
190,0.0
2,11, 1,11, 0,21, 0.00,60.00,Wednesday
141,82975239.04604176
190,0.0
2,11, 1,11, 0,22, 0.00,60.00,Wednesday
141,81254667.13408157
190,0.0
2,11, 1,11, 0,23, 0.00,60.00,Wednesday
141,79947388.52880442
190,0.0
2,11, 1,11, 0,24, 0.00,60.00,Wednesday
141,79928249.88879661
190,0.0
2,12, 1,12, 0, 1, 0.00,60.00,Thursday
141,80386177.21078819
190,0.0
2,12, 1,12, 0, 2, 0.00,60.00,Thursday
141,80361901.28052837
190,0.0
2,12, 1,12, 0, 3, 0.00,60.00,Thursday
141,79911532.95187314
190,0.0
2,12, 1,12, 0, 4, 0.00,60.00,Thursday
141,79877906.3707346
190,0.0
2,12, 1,12, 0, 5, 0.00,60.00,Thursday
141,80334255.8886295
190,0.0
2,12, 1,12, 0, 6, 0.00,60.00,Thursday
141,81516082.20178656
190,0.0
2,12, 1,12, 0, 7, 0.00,60.00,Thursday
141,82132379.4755303
190,0.0
2,12, 1,12, 0, 8, 0.00,60.00,Thursday
141,82248745.89917555
190,0.0
2,12, 1,12, 0, 9, 0.00,60.00,Thursday
141,81336784.38580005
190,0.0
2,12, 1,12, 0,10, 0.00,60.00,Thursday
141,79407783.60880944
190,0.0
2,12, 1,12, 0,11, 0.00,60.00,Thursday
141,77936568.83820789
190,0.0
2,12, 1,12, 0,12, 0.00,60.00,Thursday
141,77097819.1776326
190,0.0
2,12, 1,12, 0,13, 0.00,60.00,Thursday
141,76046463.65811563
190,0.0
2,12, 1,12, 0,14, 0.00,60.00,Thursday
141,74959066.60856198
190,0.0
2,12, 1,12, 0,15, 0.00,60.00,Thursday
141,75024203.10308309
190,0.0
2,12, 1,12, 0,16, 0.00,60.00,Thursday
141,75597141.25715078
190,0.0
2,12, 1,12, 0,17, 0.00,60.00,Thursday
141,77969589.94772846
190,0.0
2,12, 1,12, 0,18, 0.00,60.00,Thursday
141,79364141.85071589
190,0.0
2,12, 1,12, 0,19, 0.00,60.00,Thursday
141,78860285.74210878
190,0.0
2,12, 1,12, 0,20, 0.00,60.00,Thursday
141,77621317.95929953
190,0.0
2,12, 1,12, 0,21, 0.00,60.00,Thursday
141,77115321.20516336
190,0.0
2,12, 1,12, 0,22, 0.00,60.00,Thursday
141,76219297.55147482
190,0.0
2,12, 1,12, 0,23, 0.00,60.00,Thursday
141,75787495.33289574
190,0.0
2,12, 1,12, 0,24, 0.00,60.00,Thursday
141,75671830.61511299
190,0.0
2,13, 1,13, 0, 1, 0.00,60.00,Friday
141,74877403.04566751
190,0.0
2,13, 1,13, 0, 2, 0.00,60.00,Friday
141,74090689.46640271
190,0.0
2,13, 1,13, 0, 3, 0.00,60.00,Friday
141,73026744.01698558
190,0.0
2,13, 1,13, 0, 4, 0.00,60.00,Friday
141,72249407.43183942
190,0.0
2,13, 1,13, 0, 5, 0.00,60.00,Friday
141,71883475.03610313
190,0.0
2,13, 1,13, 0, 6, 0.00,60.00,Friday
141,71715261.11940265
190,0.0
2,13, 1,13, 0, 7, 0.00,60.00,Friday
141,71903870.74512988
190,0.0
2,13, 1,13, 0, 8, 0.00,60.00,Friday
141,71683906.27374768
190,0.0
2,13, 1,13, 0, 9, 0.00,60.00,Friday
141,70882712.03575101
190,0.0
2,13, 1,13, 0,10, 0.00,60.00,Friday
141,72110011.79626377
190,0.0
2,13, 1,13, 0,11, 0.00,60.00,Friday
141,73559561.8808118
190,0.0
2,13, 1,13, 0,12, 0.00,60.00,Friday
141,73574265.03319758
190,0.0
2,13, 1,13, 0,13, 0.00,60.00,Friday
141,73745562.91784208
190,0.0
2,13, 1,13, 0,14, 0.00,60.00,Friday
141,74779247.63764909
190,0.0
2,13, 1,13, 0,15, 0.00,60.00,Friday
141,75421983.36615707
190,0.0
2,13, 1,13, 0,16, 0.00,60.00,Friday
141,75373550.90472323
190,0.0
2,13, 1,13, 0,17, 0.00,60.00,Friday
141,75187238.8981757
190,0.0
2,13, 1,13, 0,18, 0.00,60.00,Friday
141,75124217.61803254
190,0.0
2,13, 1,13, 0,19, 0.00,60.00,Friday
141,76106955.8545488
190,0.0
2,13, 1,13, 0,20, 0.00,60.00,Friday
141,77800511.07178876
190,0.0
2,13, 1,13, 0,21, 0.00,60.00,Friday
141,79373817.78200448
190,0.0
2,13, 1,13, 0,22, 0.00,60.00,Friday
141,80549611.77370423
190,0.0
2,13, 1,13, 0,23, 0.00,60.00,Friday
141,80614022.18154217
190,0.0
2,13, 1,13, 0,24, 0.00,60.00,Friday
141,85036024.09455052
190,0.0
2,14, 1,14, 0, 1, 0.00,60.00,Saturday
141,88295697.99216202
190,0.0
2,14, 1,14, 0, 2, 0.00,60.00,Saturday
141,87737858.31568278
190,0.0
2,14, 1,14, 0, 3, 0.00,60.00,Saturday
141,88457754.77265613
190,0.0
2,14, 1,14, 0, 4, 0.00,60.00,Saturday
141,88467608.54122561
190,0.0
2,14, 1,14, 0, 5, 0.00,60.00,Saturday
141,88725804.6779041
190,0.0
2,14, 1,14, 0, 6, 0.00,60.00,Saturday
141,91938618.58915281
190,0.0
2,14, 1,14, 0, 7, 0.00,60.00,Saturday
141,94524771.99153426
190,0.0
2,14, 1,14, 0, 8, 0.00,60.00,Saturday
141,94390585.16234419
190,0.0
2,14, 1,14, 0, 9, 0.00,60.00,Saturday
141,96183180.4295836
190,0.0
2,14, 1,14, 0,10, 0.00,60.00,Saturday
141,98425687.92058304
190,0.0
2,14, 1,14, 0,11, 0.00,60.00,Saturday
141,98474754.96438664
190,0.0
2,14, 1,14, 0,12, 0.00,60.00,Saturday
141,98101417.72522593
190,0.0
2,14, 1,14, 0,13, 0.00,60.00,Saturday
141,96874062.26188487
190,0.0
2,14, 1,14, 0,14, 0.00,60.00,Saturday
141,93778134.45283867
190,0.0
2,14, 1,14, 0,15, 0.00,60.00,Saturday
141,93389702.61602955
190,0.0
2,14, 1,14, 0,16, 0.00,60.00,Saturday
141,93975635.79065555
190,0.0
2,14, 1,14, 0,17, 0.00,60.00,Saturday
141,95053751.50762776
190,0.0
2,14, 1,14, 0,18, 0.00,60.00,Saturday
141,97403470.65372135
190,0.0
2,14, 1,14, 0,19, 0.00,60.00,Saturday
141,97577341.125405
190,0.0
2,14, 1,14, 0,20, 0.00,60.00,Saturday
141,98254746.36005114
190,0.0
2,14, 1,14, 0,21, 0.00,60.00,Saturday
141,98295012.58809245
190,0.0
2,14, 1,14, 0,22, 0.00,60.00,Saturday
141,98033070.51060805
190,0.0
2,14, 1,14, 0,23, 0.00,60.00,Saturday
141,98039268.21713178
190,0.0
2,14, 1,14, 0,24, 0.00,60.00,Saturday
141,98379371.25446168
190,0.0
2,15, 1,15, 0, 1, 0.00,60.00,Sunday
141,97419251.27764067
190,0.0
2,15, 1,15, 0, 2, 0.00,60.00,Sunday
141,94314773.42891139
190,0.0
2,15, 1,15, 0, 3, 0.00,60.00,Sunday
141,92897307.4974677
190,0.0
2,15, 1,15, 0, 4, 0.00,60.00,Sunday
141,91822649.42926295
190,0.0
2,15, 1,15, 0, 5, 0.00,60.00,Sunday
141,89538960.4022952
190,0.0
2,15, 1,15, 0, 6, 0.00,60.00,Sunday
141,86960535.80824801
190,0.0
2,15, 1,15, 0, 7, 0.00,60.00,Sunday
141,84260783.95711693
190,0.0
2,15, 1,15, 0, 8, 0.00,60.00,Sunday
141,82224819.41528249
190,0.0
2,15, 1,15, 0, 9, 0.00,60.00,Sunday
141,80452928.76207589
190,0.0
2,15, 1,15, 0,10, 0.00,60.00,Sunday
141,79595527.47043517
190,0.0
2,15, 1,15, 0,11, 0.00,60.00,Sunday
141,80071664.37117998
190,0.0
2,15, 1,15, 0,12, 0.00,60.00,Sunday
141,82455594.88431278
190,0.0
2,15, 1,15, 0,13, 0.00,60.00,Sunday
141,83995602.01884022
190,0.0
2,15, 1,15, 0,14, 0.00,60.00,Sunday
141,84239032.6533165
190,0.0
2,15, 1,15, 0,15, 0.00,60.00,Sunday
141,84059181.83572288
190,0.0
2,15, 1,15, 0,16, 0.00,60.00,Sunday
141,82884001.78664063
190,0.0
2,15, 1,15, 0,17, 0.00,60.00,Sunday
141,82099396.58885407
190,0.0
2,15, 1,15, 0,18, 0.00,60.00,Sunday
141,82135193.35969895
190,0.0
2,15, 1,15, 0,19, 0.00,60.00,Sunday
141,82506869.24110852
190,0.0
2,15, 1,15, 0,20, 0.00,60.00,Sunday
141,83030953.73249586
190,0.0
2,15, 1,15, 0,21, 0.00,60.00,Sunday
141,84399130.76794055
190,0.0
2,15, 1,15, 0,22, 0.00,60.00,Sunday
141,85059537.08635908
190,0.0
2,15, 1,15, 0,23, 0.00,60.00,Sunday
141,85255167.9612597
190,0.0
2,15, 1,15, 0,24, 0.00,60.00,Sunday
141,85846371.63034299
190,0.0
2,16, 1,16, 0, 1, 0.00,60.00,Monday
141,87501669.77079201
190,0.0
2,16, 1,16, 0, 2, 0.00,60.00,Monday
141,89130918.85685597
190,0.0
2,16, 1,16, 0, 3, 0.00,60.00,Monday
141,90228132.34878728
190,0.0
2,16, 1,16, 0, 4, 0.00,60.00,Monday
141,91091573.40399605
190,0.0
2,16, 1,16, 0, 5, 0.00,60.00,Monday
141,92135537.88708103
190,0.0
2,16, 1,16, 0, 6, 0.00,60.00,Monday
141,92999959.32362539
190,0.0
2,16, 1,16, 0, 7, 0.00,60.00,Monday
141,94524994.11630334
190,0.0
2,16, 1,16, 0, 8, 0.00,60.00,Monday
141,95941121.28004539
190,0.0
2,16, 1,16, 0, 9, 0.00,60.00,Monday
141,96605734.3152112
190,0.0
2,16, 1,16, 0,10, 0.00,60.00,Monday
141,96733790.82277037
190,0.0
2,16, 1,16, 0,11, 0.00,60.00,Monday
141,93966518.31087998
190,0.0
2,16, 1,16, 0,12, 0.00,60.00,Monday
141,91477627.21783333
190,0.0
2,16, 1,16, 0,13, 0.00,60.00,Monday
141,89381776.19381942
190,0.0
2,16, 1,16, 0,14, 0.00,60.00,Monday
141,87795282.07323082
190,0.0
2,16, 1,16, 0,15, 0.00,60.00,Monday
141,87423279.4699327
190,0.0
2,16, 1,16, 0,16, 0.00,60.00,Monday
141,87915170.24278396
190,0.0
2,16, 1,16, 0,17, 0.00,60.00,Monday
141,89367128.49174866
190,0.0
2,16, 1,16, 0,18, 0.00,60.00,Monday
141,92173028.85916966
190,0.0
2,16, 1,16, 0,19, 0.00,60.00,Monday
141,95086890.20375481
190,0.0
2,16, 1,16, 0,20, 0.00,60.00,Monday
141,96530395.79766756
190,0.0
2,16, 1,16, 0,21, 0.00,60.00,Monday
141,97643430.55302086
190,0.0
2,16, 1,16, 0,22, 0.00,60.00,Monday
141,98647170.42501907
190,0.0
2,16, 1,16, 0,23, 0.00,60.00,Monday
141,100185125.84699133
190,0.0
2,16, 1,16, 0,24, 0.00,60.00,Monday
141,100493653.28426625
190,0.0
2,17, 1,17, 0, 1, 0.00,60.00,Tuesday
141,101001134.84561342
190,0.0
2,17, 1,17, 0, 2, 0.00,60.00,Tuesday
141,103118143.50518942
190,0.0
2,17, 1,17, 0, 3, 0.00,60.00,Tuesday
141,105080707.24526674
190,0.0
2,17, 1,17, 0, 4, 0.00,60.00,Tuesday
141,106877116.99632096
190,0.0
2,17, 1,17, 0, 5, 0.00,60.00,Tuesday
141,108830153.53761455
190,0.0
2,17, 1,17, 0, 6, 0.00,60.00,Tuesday
141,110770352.82120848
190,0.0
2,17, 1,17, 0, 7, 0.00,60.00,Tuesday
141,112076107.19897224
190,0.0
2,17, 1,17, 0, 8, 0.00,60.00,Tuesday
141,112947360.463581
190,0.0
2,17, 1,17, 0, 9, 0.00,60.00,Tuesday
141,113428251.72660762
190,0.0
2,17, 1,17, 0,10, 0.00,60.00,Tuesday
141,110506754.55079578
190,0.0
2,17, 1,17, 0,11, 0.00,60.00,Tuesday
141,106001789.44709384
190,0.0
2,17, 1,17, 0,12, 0.00,60.00,Tuesday
141,102054667.72819073
190,0.0
2,17, 1,17, 0,13, 0.00,60.00,Tuesday
141,99577842.20663372
190,0.0
2,17, 1,17, 0,14, 0.00,60.00,Tuesday
141,98612239.75068295
190,0.0
2,17, 1,17, 0,15, 0.00,60.00,Tuesday
141,98568487.85734487
190,0.0
2,17, 1,17, 0,16, 0.00,60.00,Tuesday
141,99805901.54779293
190,0.0
2,17, 1,17, 0,17, 0.00,60.00,Tuesday
141,100453353.59558146
190,0.0
2,17, 1,17, 0,18, 0.00,60.00,Tuesday
141,99503353.76906978
190,0.0
2,17, 1,17, 0,19, 0.00,60.00,Tuesday
141,98418203.6131946
190,0.0
2,17, 1,17, 0,20, 0.00,60.00,Tuesday
141,98222233.7525902
190,0.0
2,17, 1,17, 0,21, 0.00,60.00,Tuesday
141,98603838.9747882
190,0.0
2,17, 1,17, 0,22, 0.00,60.00,Tuesday
141,98587670.21146668
190,0.0
2,17, 1,17, 0,23, 0.00,60.00,Tuesday
141,98706288.43964697
190,0.0
2,17, 1,17, 0,24, 0.00,60.00,Tuesday
141,99855924.18887207
190,0.0
2,18, 1,18, 0, 1, 0.00,60.00,Wednesday
141,100751460.46018845
190,0.0
2,18, 1,18, 0, 2, 0.00,60.00,Wednesday
141,101639357.77830614
190,0.0
2,18, 1,18, 0, 3, 0.00,60.00,Wednesday
141,102356067.75132038
190,0.0
2,18, 1,18, 0, 4, 0.00,60.00,Wednesday
141,102884329.41269988
190,0.0
2,18, 1,18, 0, 5, 0.00,60.00,Wednesday
141,103513709.79574051
190,0.0
2,18, 1,18, 0, 6, 0.00,60.00,Wednesday
141,104258755.00582045
190,0.0
2,18, 1,18, 0, 7, 0.00,60.00,Wednesday
141,106288960.73837775
190,0.0
2,18, 1,18, 0, 8, 0.00,60.00,Wednesday
141,107081251.63886845
190,0.0
2,18, 1,18, 0, 9, 0.00,60.00,Wednesday
141,107581617.54489335
190,0.0
2,18, 1,18, 0,10, 0.00,60.00,Wednesday
141,107671490.41703676
190,0.0
2,18, 1,18, 0,11, 0.00,60.00,Wednesday
141,106228299.73968157
190,0.0
2,18, 1,18, 0,12, 0.00,60.00,Wednesday
141,105112305.32138579
190,0.0
2,18, 1,18, 0,13, 0.00,60.00,Wednesday
141,105714734.74727874
190,0.0
2,18, 1,18, 0,14, 0.00,60.00,Wednesday
141,106884547.66698422
190,0.0
2,18, 1,18, 0,15, 0.00,60.00,Wednesday
141,107413448.11364709
190,0.0
2,18, 1,18, 0,16, 0.00,60.00,Wednesday
141,108633025.37350915
190,0.0
2,18, 1,18, 0,17, 0.00,60.00,Wednesday
141,109146468.07519644
190,0.0
2,18, 1,18, 0,18, 0.00,60.00,Wednesday
141,108459713.89356966
190,0.0
2,18, 1,18, 0,19, 0.00,60.00,Wednesday
141,108122174.48276527
190,0.0
2,18, 1,18, 0,20, 0.00,60.00,Wednesday
141,108354720.62989119
190,0.0
2,18, 1,18, 0,21, 0.00,60.00,Wednesday
141,108548382.7325236
190,0.0
2,18, 1,18, 0,22, 0.00,60.00,Wednesday
141,109020464.44436076
190,0.0
2,18, 1,18, 0,23, 0.00,60.00,Wednesday
141,109359196.15777448
190,0.0
2,18, 1,18, 0,24, 0.00,60.00,Wednesday
141,109796042.63325547
190,0.0
2,19, 1,19, 0, 1, 0.00,60.00,Thursday
141,109275033.39015585
190,0.0
2,19, 1,19, 0, 2, 0.00,60.00,Thursday
141,109509221.5464645
190,0.0
2,19, 1,19, 0, 3, 0.00,60.00,Thursday