Program Version,EnergyPlus, Version 24.2.0-94a887817b, YMD=2025.04.24 13:20
1,5,Environment Title[],Latitude[deg],Longitude[deg],Time Zone[],Elevation[m]
2,8,Day of Simulation[],Month[],Day of Month[],DST Indicator[1=yes 0=no],Hour[],StartMinute[],EndMinute[],DayType
3,5,Cumulative Day of Simulation[],Month[],Day of Month[],DST Indicator[1=yes 0=no],DayType  ! When Daily Report Variables Requested
4,2,Cumulative Days of Simulation[],Month[]  ! When Monthly Report Variables Requested
5,1,Cumulative Days of Simulation[] ! When Run Period Report Variables Requested
6,1,Calendar Year of Simulation[] ! When Annual Report Variables Requested
141,1,ZONE_0599100000206142 IDEAL LOADS AIR SYSTEM,Zone Ideal Loads Supply Air Total Heating Energy [J] !Hourly
190,1,ZONE_0599100000206142 IDEAL LOADS AIR SYSTEM,Zone Ideal Loads Supply Air Total Cooling Energy [J] !Hourly
End of Data Dictionary
1,RUN PERIOD 1,  51.96,   4.45,   1.00,  -4.50
2,1, 1, 1, 0, 1, 0.00,60.00,Sunday
141,36828671.17806441
190,0.0
2,1, 1, 1, 0, 2, 0.00,60.00,Sunday
141,37809727.22736596
190,0.0
2,1, 1, 1, 0, 3, 0.00,60.00,Sunday
141,37836169.90145836
190,0.0
2,1, 1, 1, 0, 4, 0.00,60.00,Sunday
141,38578889.73195488
190,0.0
2,1, 1, 1, 0, 5, 0.00,60.00,Sunday
141,39125104.79518625
190,0.0
2,1, 1, 1, 0, 6, 0.00,60.00,Sunday
141,39276685.820007056
190,0.0
2,1, 1, 1, 0, 7, 0.00,60.00,Sunday
141,39483522.755394
190,0.0
2,1, 1, 1, 0, 8, 0.00,60.00,Sunday
141,39562732.47348924
190,0.0
2,1, 1, 1, 0, 9, 0.00,60.00,Sunday
141,39664808.26211598
190,0.0
2,1, 1, 1, 0,10, 0.00,60.00,Sunday
141,39608368.35328879
190,0.0
2,1, 1, 1, 0,11, 0.00,60.00,Sunday
141,39198801.600695305
190,0.0
2,1, 1, 1, 0,12, 0.00,60.00,Sunday
141,38397926.63563098
190,0.0
2,1, 1, 1, 0,13, 0.00,60.00,Sunday
141,37990287.72796538
190,0.0
2,1, 1, 1, 0,14, 0.00,60.00,Sunday
141,37290813.99510411
190,0.0
2,1, 1, 1, 0,15, 0.00,60.00,Sunday
141,36668457.22561176
190,0.0
2,1, 1, 1, 0,16, 0.00,60.00,Sunday
141,36838553.79929742
190,0.0
2,1, 1, 1, 0,17, 0.00,60.00,Sunday
141,37092785.144981585
190,0.0
2,1, 1, 1, 0,18, 0.00,60.00,Sunday
141,36999039.39184017
190,0.0
2,1, 1, 1, 0,19, 0.00,60.00,Sunday
141,36942003.084573716
190,0.0
2,1, 1, 1, 0,20, 0.00,60.00,Sunday
141,36776349.89612398
190,0.0
2,1, 1, 1, 0,21, 0.00,60.00,Sunday
141,36615040.933217995
190,0.0
2,1, 1, 1, 0,22, 0.00,60.00,Sunday
141,36653417.0811611
190,0.0
2,1, 1, 1, 0,23, 0.00,60.00,Sunday
141,36013384.70613059
190,0.0
2,1, 1, 1, 0,24, 0.00,60.00,Sunday
141,35563012.554112144
190,0.0
2,2, 1, 2, 0, 1, 0.00,60.00,Monday
141,35693528.75523708
190,0.0
2,2, 1, 2, 0, 2, 0.00,60.00,Monday
141,35072821.22226523
190,0.0
2,2, 1, 2, 0, 3, 0.00,60.00,Monday
141,34593255.28385836
190,0.0
2,2, 1, 2, 0, 4, 0.00,60.00,Monday
141,34089038.506836474
190,0.0
2,2, 1, 2, 0, 5, 0.00,60.00,Monday
141,32949668.43031846
190,0.0
2,2, 1, 2, 0, 6, 0.00,60.00,Monday
141,32368855.32907672
190,0.0
2,2, 1, 2, 0, 7, 0.00,60.00,Monday
141,31448974.029547818
190,0.0
2,2, 1, 2, 0, 8, 0.00,60.00,Monday
141,30307119.329826854
190,0.0
2,2, 1, 2, 0, 9, 0.00,60.00,Monday
141,30466837.836839378
190,0.0
2,2, 1, 2, 0,10, 0.00,60.00,Monday
141,31038361.451211687
190,0.0
2,2, 1, 2, 0,11, 0.00,60.00,Monday
141,31335430.7147931
190,0.0
2,2, 1, 2, 0,12, 0.00,60.00,Monday
141,30669576.93469899
190,0.0
2,2, 1, 2, 0,13, 0.00,60.00,Monday
141,30310963.03665698
190,0.0
2,2, 1, 2, 0,14, 0.00,60.00,Monday
141,30746872.049795926
190,0.0
2,2, 1, 2, 0,15, 0.00,60.00,Monday
141,30947689.609672014
190,0.0
2,2, 1, 2, 0,16, 0.00,60.00,Monday
141,31465569.849836554
190,0.0
2,2, 1, 2, 0,17, 0.00,60.00,Monday
141,32011973.899520334
190,0.0
2,2, 1, 2, 0,18, 0.00,60.00,Monday
141,32193458.675762616
190,0.0
2,2, 1, 2, 0,19, 0.00,60.00,Monday
141,32853238.45850209
190,0.0
2,2, 1, 2, 0,20, 0.00,60.00,Monday
141,33491954.089015737
190,0.0
2,2, 1, 2, 0,21, 0.00,60.00,Monday
141,33734428.23973572
190,0.0
2,2, 1, 2, 0,22, 0.00,60.00,Monday
141,33897641.27922079
190,0.0
2,2, 1, 2, 0,23, 0.00,60.00,Monday
141,34110341.37318796
190,0.0
2,2, 1, 2, 0,24, 0.00,60.00,Monday
141,34339411.17616215
190,0.0
2,3, 1, 3, 0, 1, 0.00,60.00,Tuesday
141,34579663.84145703
190,0.0
2,3, 1, 3, 0, 2, 0.00,60.00,Tuesday
141,34762993.81187702
190,0.0
2,3, 1, 3, 0, 3, 0.00,60.00,Tuesday
141,34911686.76364466
190,0.0
2,3, 1, 3, 0, 4, 0.00,60.00,Tuesday
141,35122565.53341477
190,0.0
2,3, 1, 3, 0, 5, 0.00,60.00,Tuesday
141,35827700.342347525
190,0.0
2,3, 1, 3, 0, 6, 0.00,60.00,Tuesday
141,36264391.194793716
190,0.0
2,3, 1, 3, 0, 7, 0.00,60.00,Tuesday
141,36454540.0351638
190,0.0
2,3, 1, 3, 0, 8, 0.00,60.00,Tuesday
141,36372109.569991134
190,0.0
2,3, 1, 3, 0, 9, 0.00,60.00,Tuesday
141,36843441.538228
190,0.0
2,3, 1, 3, 0,10, 0.00,60.00,Tuesday
141,37045067.31371221
190,0.0
2,3, 1, 3, 0,11, 0.00,60.00,Tuesday
141,37061767.928554
190,0.0
2,3, 1, 3, 0,12, 0.00,60.00,Tuesday
141,37175877.141352646
190,0.0
2,3, 1, 3, 0,13, 0.00,60.00,Tuesday
141,37943781.06310737
190,0.0
2,3, 1, 3, 0,14, 0.00,60.00,Tuesday
141,38385564.02419317
190,0.0
2,3, 1, 3, 0,15, 0.00,60.00,Tuesday
141,38305423.98541784
190,0.0
2,3, 1, 3, 0,16, 0.00,60.00,Tuesday
141,38221411.25428953
190,0.0
2,3, 1, 3, 0,17, 0.00,60.00,Tuesday
141,38233368.75412515
190,0.0
2,3, 1, 3, 0,18, 0.00,60.00,Tuesday
141,38269301.39092701
190,0.0
2,3, 1, 3, 0,19, 0.00,60.00,Tuesday
141,38104815.04168142
190,0.0
2,3, 1, 3, 0,20, 0.00,60.00,Tuesday
141,37449014.308796614
190,0.0
2,3, 1, 3, 0,21, 0.00,60.00,Tuesday
141,35763548.42037816
190,0.0
2,3, 1, 3, 0,22, 0.00,60.00,Tuesday
141,34900370.25621544
190,0.0
2,3, 1, 3, 0,23, 0.00,60.00,Tuesday
141,35611138.792047545
190,0.0
2,3, 1, 3, 0,24, 0.00,60.00,Tuesday
141,36776871.055615716
190,0.0
2,4, 1, 4, 0, 1, 0.00,60.00,Wednesday
141,37386473.17326665
190,0.0
2,4, 1, 4, 0, 2, 0.00,60.00,Wednesday
141,37383469.40205989
190,0.0
2,4, 1, 4, 0, 3, 0.00,60.00,Wednesday
141,37337855.08665833
190,0.0
2,4, 1, 4, 0, 4, 0.00,60.00,Wednesday
141,37655188.45622376
190,0.0
2,4, 1, 4, 0, 5, 0.00,60.00,Wednesday
141,38498308.19665581
190,0.0
2,4, 1, 4, 0, 6, 0.00,60.00,Wednesday
141,38404617.68788246
190,0.0
2,4, 1, 4, 0, 7, 0.00,60.00,Wednesday
141,38437261.34563252
190,0.0
2,4, 1, 4, 0, 8, 0.00,60.00,Wednesday
141,38772290.461785495
190,0.0
2,4, 1, 4, 0, 9, 0.00,60.00,Wednesday
141,39011016.86711308
190,0.0
2,4, 1, 4, 0,10, 0.00,60.00,Wednesday
141,39203608.777050234
190,0.0
2,4, 1, 4, 0,11, 0.00,60.00,Wednesday
141,37937340.7100351
190,0.0
2,4, 1, 4, 0,12, 0.00,60.00,Wednesday
141,35804730.120214656
190,0.0
2,4, 1, 4, 0,13, 0.00,60.00,Wednesday
141,35312351.54689613
190,0.0
2,4, 1, 4, 0,14, 0.00,60.00,Wednesday
141,35310191.60699187
190,0.0
2,4, 1, 4, 0,15, 0.00,60.00,Wednesday
141,35119208.497191384
190,0.0
2,4, 1, 4, 0,16, 0.00,60.00,Wednesday
141,35995650.88329352
190,0.0
2,4, 1, 4, 0,17, 0.00,60.00,Wednesday
141,37557103.47755568
190,0.0
2,4, 1, 4, 0,18, 0.00,60.00,Wednesday
141,38889964.88099838
190,0.0
2,4, 1, 4, 0,19, 0.00,60.00,Wednesday
141,40263212.177301444
190,0.0
2,4, 1, 4, 0,20, 0.00,60.00,Wednesday
141,41000892.72451627
190,0.0
2,4, 1, 4, 0,21, 0.00,60.00,Wednesday
141,41394941.95451017
190,0.0
2,4, 1, 4, 0,22, 0.00,60.00,Wednesday
141,42216398.32820586
190,0.0
2,4, 1, 4, 0,23, 0.00,60.00,Wednesday
141,42101849.424501
190,0.0
2,4, 1, 4, 0,24, 0.00,60.00,Wednesday
141,41829548.5254639
190,0.0
2,5, 1, 5, 0, 1, 0.00,60.00,Thursday
141,42279718.75893279
190,0.0
2,5, 1, 5, 0, 2, 0.00,60.00,Thursday
141,42191521.079197004
190,0.0
2,5, 1, 5, 0, 3, 0.00,60.00,Thursday
141,42090012.32114248
190,0.0
2,5, 1, 5, 0, 4, 0.00,60.00,Thursday
141,42356526.138243236
190,0.0
2,5, 1, 5, 0, 5, 0.00,60.00,Thursday
141,42118101.6118364
190,0.0
2,5, 1, 5, 0, 6, 0.00,60.00,Thursday
141,42054356.17382285
190,0.0
2,5, 1, 5, 0, 7, 0.00,60.00,Thursday
141,42366573.902758285
190,0.0
2,5, 1, 5, 0, 8, 0.00,60.00,Thursday
141,42606714.04007587
190,0.0
2,5, 1, 5, 0, 9, 0.00,60.00,Thursday
141,42667253.03353445
190,0.0
2,5, 1, 5, 0,10, 0.00,60.00,Thursday
141,43049011.959985115
190,0.0
2,5, 1, 5, 0,11, 0.00,60.00,Thursday
141,42873764.3609556
190,0.0
2,5, 1, 5, 0,12, 0.00,60.00,Thursday
141,41830698.325175904
190,0.0
2,5, 1, 5, 0,13, 0.00,60.00,Thursday
141,41333934.431848995
190,0.0
2,5, 1, 5, 0,14, 0.00,60.00,Thursday
141,40404183.31947053
190,0.0
2,5, 1, 5, 0,15, 0.00,60.00,Thursday
141,39544278.59584495
190,0.0
2,5, 1, 5, 0,16, 0.00,60.00,Thursday
141,39627827.48325154
190,0.0
2,5, 1, 5, 0,17, 0.00,60.00,Thursday
141,39153706.447659865
190,0.0
2,5, 1, 5, 0,18, 0.00,60.00,Thursday
141,38520381.25643329
190,0.0
2,5, 1, 5, 0,19, 0.00,60.00,Thursday
141,38389504.182346545
190,0.0
2,5, 1, 5, 0,20, 0.00,60.00,Thursday
141,38109700.69836778
190,0.0
2,5, 1, 5, 0,21, 0.00,60.00,Thursday
141,37806007.47932728
190,0.0
2,5, 1, 5, 0,22, 0.00,60.00,Thursday
141,37659682.03796267
190,0.0
2,5, 1, 5, 0,23, 0.00,60.00,Thursday
141,37667752.79240312
190,0.0
2,5, 1, 5, 0,24, 0.00,60.00,Thursday
141,37711385.27280118
190,0.0
2,6, 1, 6, 0, 1, 0.00,60.00,Friday
141,37717819.95534655
190,0.0
2,6, 1, 6, 0, 2, 0.00,60.00,Friday
141,37730072.22610572
190,0.0
2,6, 1, 6, 0, 3, 0.00,60.00,Friday
141,38283096.84656933
190,0.0
2,6, 1, 6, 0, 4, 0.00,60.00,Friday
141,38826010.50459192
190,0.0
2,6, 1, 6, 0, 5, 0.00,60.00,Friday
141,39090605.0192771
190,0.0
2,6, 1, 6, 0, 6, 0.00,60.00,Friday
141,39443500.86650193
190,0.0
2,6, 1, 6, 0, 7, 0.00,60.00,Friday
141,40006145.94039887
190,0.0
2,6, 1, 6, 0, 8, 0.00,60.00,Friday
141,40565773.82046121
190,0.0
2,6, 1, 6, 0, 9, 0.00,60.00,Friday
141,41267798.36170163
190,0.0
2,6, 1, 6, 0,10, 0.00,60.00,Friday
141,41739694.23327965
190,0.0
2,6, 1, 6, 0,11, 0.00,60.00,Friday
141,41423747.31768069
190,0.0
2,6, 1, 6, 0,12, 0.00,60.00,Friday
141,40873536.771171756
190,0.0
2,6, 1, 6, 0,13, 0.00,60.00,Friday
141,40643307.76736432
190,0.0
2,6, 1, 6, 0,14, 0.00,60.00,Friday
141,40531274.27948949
190,0.0
2,6, 1, 6, 0,15, 0.00,60.00,Friday
141,40287605.64096369
190,0.0
2,6, 1, 6, 0,16, 0.00,60.00,Friday
141,39744777.69479842
190,0.0
2,6, 1, 6, 0,17, 0.00,60.00,Friday
141,39169381.51212375
190,0.0
2,6, 1, 6, 0,18, 0.00,60.00,Friday
141,38844958.79232659
190,0.0
2,6, 1, 6, 0,19, 0.00,60.00,Friday
141,38530666.148436494
190,0.0
2,6, 1, 6, 0,20, 0.00,60.00,Friday
141,37930783.43058602
190,0.0
2,6, 1, 6, 0,21, 0.00,60.00,Friday
141,36511911.27027252
190,0.0
2,6, 1, 6, 0,22, 0.00,60.00,Friday
141,34840998.75083637
190,0.0
2,6, 1, 6, 0,23, 0.00,60.00,Friday
141,34152365.58702769
190,0.0
2,6, 1, 6, 0,24, 0.00,60.00,Friday
141,34400989.953376696
190,0.0
2,7, 1, 7, 0, 1, 0.00,60.00,Saturday
141,35845329.33999288
190,0.0
2,7, 1, 7, 0, 2, 0.00,60.00,Saturday
141,37248229.12641788
190,0.0
2,7, 1, 7, 0, 3, 0.00,60.00,Saturday
141,37017787.663384765
190,0.0
2,7, 1, 7, 0, 4, 0.00,60.00,Saturday
141,37105631.25347713
190,0.0
2,7, 1, 7, 0, 5, 0.00,60.00,Saturday
141,38059386.50320473
190,0.0
2,7, 1, 7, 0, 6, 0.00,60.00,Saturday
141,38814486.93689591
190,0.0
2,7, 1, 7, 0, 7, 0.00,60.00,Saturday
141,39269324.412196085
190,0.0
2,7, 1, 7, 0, 8, 0.00,60.00,Saturday
141,39518583.33010362
190,0.0
2,7, 1, 7, 0, 9, 0.00,60.00,Saturday
141,39032997.90571961
190,0.0
2,7, 1, 7, 0,10, 0.00,60.00,Saturday
141,38631513.692434184
190,0.0
2,7, 1, 7, 0,11, 0.00,60.00,Saturday
141,37307943.31543541
190,0.0
2,7, 1, 7, 0,12, 0.00,60.00,Saturday
141,35937326.672827564
190,0.0
2,7, 1, 7, 0,13, 0.00,60.00,Saturday
141,34836872.08662182
190,0.0
2,7, 1, 7, 0,14, 0.00,60.00,Saturday
141,34085068.268850535
190,0.0
2,7, 1, 7, 0,15, 0.00,60.00,Saturday
141,33945889.8180347
190,0.0
2,7, 1, 7, 0,16, 0.00,60.00,Saturday
141,33977501.038517766
190,0.0
2,7, 1, 7, 0,17, 0.00,60.00,Saturday
141,33913786.13980981
190,0.0
2,7, 1, 7, 0,18, 0.00,60.00,Saturday
141,34188983.34821029
190,0.0
2,7, 1, 7, 0,19, 0.00,60.00,Saturday
141,34504110.77418996
190,0.0
2,7, 1, 7, 0,20, 0.00,60.00,Saturday
141,34899660.44301261
190,0.0
2,7, 1, 7, 0,21, 0.00,60.00,Saturday
141,35214585.16198033
190,0.0
2,7, 1, 7, 0,22, 0.00,60.00,Saturday
141,35182606.67535457
190,0.0
2,7, 1, 7, 0,23, 0.00,60.00,Saturday
141,35282920.90456973
190,0.0
2,7, 1, 7, 0,24, 0.00,60.00,Saturday
141,35329996.20204498
190,0.0
2,8, 1, 8, 0, 1, 0.00,60.00,Sunday
141,35076126.717897475
190,0.0
2,8, 1, 8, 0, 2, 0.00,60.00,Sunday
141,34819618.28430978
190,0.0
2,8, 1, 8, 0, 3, 0.00,60.00,Sunday
141,34647162.02809089
190,0.0
2,8, 1, 8, 0, 4, 0.00,60.00,Sunday
141,34281994.249164574
190,0.0
2,8, 1, 8, 0, 5, 0.00,60.00,Sunday
141,33741338.69101757
190,0.0
2,8, 1, 8, 0, 6, 0.00,60.00,Sunday
141,33334144.11112663
190,0.0
2,8, 1, 8, 0, 7, 0.00,60.00,Sunday
141,32997274.967599235
190,0.0
2,8, 1, 8, 0, 8, 0.00,60.00,Sunday
141,32658531.34601995
190,0.0
2,8, 1, 8, 0, 9, 0.00,60.00,Sunday
141,32243292.777330864
190,0.0
2,8, 1, 8, 0,10, 0.00,60.00,Sunday
141,32051766.339573037
190,0.0
2,8, 1, 8, 0,11, 0.00,60.00,Sunday
141,31850204.324121036
190,0.0
2,8, 1, 8, 0,12, 0.00,60.00,Sunday
141,31796934.74956269
190,0.0
2,8, 1, 8, 0,13, 0.00,60.00,Sunday
141,31564526.628491096
190,0.0
2,8, 1, 8, 0,14, 0.00,60.00,Sunday
141,31492359.12865152
190,0.0
2,8, 1, 8, 0,15, 0.00,60.00,Sunday
141,32209945.346292462
190,0.0
2,8, 1, 8, 0,16, 0.00,60.00,Sunday
141,32706478.549353886
190,0.0
2,8, 1, 8, 0,17, 0.00,60.00,Sunday
141,32637749.91922337
190,0.0
2,8, 1, 8, 0,18, 0.00,60.00,Sunday
141,32864478.7776962
190,0.0
2,8, 1, 8, 0,19, 0.00,60.00,Sunday
141,32711878.075293556
190,0.0
2,8, 1, 8, 0,20, 0.00,60.00,Sunday
141,32215522.044161808
190,0.0
2,8, 1, 8, 0,21, 0.00,60.00,Sunday
141,31885374.364507757
190,0.0
2,8, 1, 8, 0,22, 0.00,60.00,Sunday
141,32058079.7230402
190,0.0
2,8, 1, 8, 0,23, 0.00,60.00,Sunday
141,32229456.971146222
190,0.0
2,8, 1, 8, 0,24, 0.00,60.00,Sunday
141,32610785.667149905
190,0.0
2,9, 1, 9, 0, 1, 0.00,60.00,Monday
141,32737366.48499101
190,0.0
2,9, 1, 9, 0, 2, 0.00,60.00,Monday
141,32843009.535174638
190,0.0
2,9, 1, 9, 0, 3, 0.00,60.00,Monday
141,32842041.25618438
190,0.0
2,9, 1, 9, 0, 4, 0.00,60.00,Monday
141,32723536.54470177
190,0.0
2,9, 1, 9, 0, 5, 0.00,60.00,Monday
141,32352227.98840469
190,0.0
2,9, 1, 9, 0, 6, 0.00,60.00,Monday
141,31952519.47651897
190,0.0
2,9, 1, 9, 0, 7, 0.00,60.00,Monday
141,31647782.55225984
190,0.0
2,9, 1, 9, 0, 8, 0.00,60.00,Monday
141,31457884.047874127
190,0.0
2,9, 1, 9, 0, 9, 0.00,60.00,Monday
141,30941896.476401187
190,0.0
2,9, 1, 9, 0,10, 0.00,60.00,Monday
141,29734168.79196142
190,0.0
2,9, 1, 9, 0,11, 0.00,60.00,Monday
141,28690766.291500717
190,0.0
2,9, 1, 9, 0,12, 0.00,60.00,Monday
141,28071586.54198466
190,0.0
2,9, 1, 9, 0,13, 0.00,60.00,Monday
141,27515227.847729057
190,0.0
2,9, 1, 9, 0,14, 0.00,60.00,Monday
141,27039609.954338443
190,0.0
2,9, 1, 9, 0,15, 0.00,60.00,Monday
141,26745003.881553594
190,0.0
2,9, 1, 9, 0,16, 0.00,60.00,Monday
141,26780391.89383953
190,0.0
2,9, 1, 9, 0,17, 0.00,60.00,Monday
141,27372287.061351616
190,0.0
2,9, 1, 9, 0,18, 0.00,60.00,Monday
141,27945342.511061087
190,0.0
2,9, 1, 9, 0,19, 0.00,60.00,Monday
141,27757956.454165626
190,0.0
2,9, 1, 9, 0,20, 0.00,60.00,Monday
141,26632071.60402018
190,0.0
2,9, 1, 9, 0,21, 0.00,60.00,Monday
141,25504126.43506368
190,0.0
2,9, 1, 9, 0,22, 0.00,60.00,Monday
141,24763915.33614652
190,0.0
2,9, 1, 9, 0,23, 0.00,60.00,Monday
141,24507340.68391841
190,0.0
2,9, 1, 9, 0,24, 0.00,60.00,Monday
141,24393068.335234314
190,0.0
2,10, 1,10, 0, 1, 0.00,60.00,Tuesday
141,24461679.362112697
190,0.0
2,10, 1,10, 0, 2, 0.00,60.00,Tuesday
141,24419837.66830602
190,0.0
2,10, 1,10, 0, 3, 0.00,60.00,Tuesday
141,24214991.59808521
190,0.0
2,10, 1,10, 0, 4, 0.00,60.00,Tuesday
141,24300335.503733654
190,0.0
2,10, 1,10, 0, 5, 0.00,60.00,Tuesday
141,24197310.986963622
190,0.0
2,10, 1,10, 0, 6, 0.00,60.00,Tuesday
141,24034996.580814272
190,0.0
2,10, 1,10, 0, 7, 0.00,60.00,Tuesday
141,23905092.805762332
190,0.0
2,10, 1,10, 0, 8, 0.00,60.00,Tuesday
141,23646987.827148978
190,0.0
2,10, 1,10, 0, 9, 0.00,60.00,Tuesday
141,23362495.63582949
190,0.0
2,10, 1,10, 0,10, 0.00,60.00,Tuesday
141,23038523.762676332
190,0.0
2,10, 1,10, 0,11, 0.00,60.00,Tuesday
141,22628775.446548402
190,0.0
2,10, 1,10, 0,12, 0.00,60.00,Tuesday
141,22181572.127283603
190,0.0
2,10, 1,10, 0,13, 0.00,60.00,Tuesday
141,22041352.194542505
190,0.0
2,10, 1,10, 0,14, 0.00,60.00,Tuesday
141,23302333.195126623
190,0.0
2,10, 1,10, 0,15, 0.00,60.00,Tuesday
141,24327017.91873402
190,0.0
2,10, 1,10, 0,16, 0.00,60.00,Tuesday
141,24977099.387249503
190,0.0
2,10, 1,10, 0,17, 0.00,60.00,Tuesday
141,25708699.76329765
190,0.0
2,10, 1,10, 0,18, 0.00,60.00,Tuesday
141,26710802.419460353
190,0.0
2,10, 1,10, 0,19, 0.00,60.00,Tuesday
141,27382303.41685197
190,0.0
2,10, 1,10, 0,20, 0.00,60.00,Tuesday
141,28040572.743635423
190,0.0
2,10, 1,10, 0,21, 0.00,60.00,Tuesday
141,29006426.71115379
190,0.0
2,10, 1,10, 0,22, 0.00,60.00,Tuesday
141,29806773.918636166
190,0.0
2,10, 1,10, 0,23, 0.00,60.00,Tuesday
141,30136659.882840652
190,0.0
2,10, 1,10, 0,24, 0.00,60.00,Tuesday
141,31061853.485148773
190,0.0
2,11, 1,11, 0, 1, 0.00,60.00,Wednesday
141,31690055.68885494
190,0.0
2,11, 1,11, 0, 2, 0.00,60.00,Wednesday
141,32309808.31007895
190,0.0
2,11, 1,11, 0, 3, 0.00,60.00,Wednesday
141,33044465.865604788
190,0.0
2,11, 1,11, 0, 4, 0.00,60.00,Wednesday
141,33233140.048277453
190,0.0
2,11, 1,11, 0, 5, 0.00,60.00,Wednesday
141,33419843.348628312
190,0.0
2,11, 1,11, 0, 6, 0.00,60.00,Wednesday
141,33652517.07031869
190,0.0
2,11, 1,11, 0, 7, 0.00,60.00,Wednesday
141,33969728.116291314
190,0.0
2,11, 1,11, 0, 8, 0.00,60.00,Wednesday
141,34245459.435727686
190,0.0
2,11, 1,11, 0, 9, 0.00,60.00,Wednesday
141,34328153.77724138
190,0.0
2,11, 1,11, 0,10, 0.00,60.00,Wednesday
141,34277093.4279855
190,0.0
2,11, 1,11, 0,11, 0.00,60.00,Wednesday
141,34087079.150063835
190,0.0
2,11, 1,11, 0,12, 0.00,60.00,Wednesday
141,33667815.86615066
190,0.0
2,11, 1,11, 0,13, 0.00,60.00,Wednesday
141,33246442.465835
190,0.0
2,11, 1,11, 0,14, 0.00,60.00,Wednesday
141,32904409.333952423
190,0.0
2,11, 1,11, 0,15, 0.00,60.00,Wednesday
141,32576183.948573384
190,0.0
2,11, 1,11, 0,16, 0.00,60.00,Wednesday
141,32246608.397717834
190,0.0
2,11, 1,11, 0,17, 0.00,60.00,Wednesday
141,31657394.75083626
190,0.0
2,11, 1,11, 0,18, 0.00,60.00,Wednesday
141,31110908.94906058
190,0.0
2,11, 1,11, 0,19, 0.00,60.00,Wednesday
141,30696479.75426644
190,0.0
2,11, 1,11, 0,20, 0.00,60.00,Wednesday
141,30494176.45131186
190,0.0
2,11, 1,11, 0,21, 0.00,60.00,Wednesday
141,30363324.534928918
190,0.0
2,11, 1,11, 0,22, 0.00,60.00,Wednesday
141,29801626.330148384
190,0.0
2,11, 1,11, 0,23, 0.00,60.00,Wednesday
141,29377843.009498365
190,0.0
2,11, 1,11, 0,24, 0.00,60.00,Wednesday
141,29368361.73722095
190,0.0
2,12, 1,12, 0, 1, 0.00,60.00,Thursday
141,29510828.547356892
190,0.0
2,12, 1,12, 0, 2, 0.00,60.00,Thursday
141,29497194.857583247
190,0.0
2,12, 1,12, 0, 3, 0.00,60.00,Thursday
141,29346453.047333766
190,0.0
2,12, 1,12, 0, 4, 0.00,60.00,Thursday
141,29329782.556844294
190,0.0
2,12, 1,12, 0, 5, 0.00,60.00,Thursday
141,29470990.236786835
190,0.0
2,12, 1,12, 0, 6, 0.00,60.00,Thursday
141,29844870.71858066
190,0.0
2,12, 1,12, 0, 7, 0.00,60.00,Thursday
141,30037882.230779745
190,0.0
2,12, 1,12, 0, 8, 0.00,60.00,Thursday
141,30071111.200862534
190,0.0
2,12, 1,12, 0, 9, 0.00,60.00,Thursday
141,29775789.360499714
190,0.0
2,12, 1,12, 0,10, 0.00,60.00,Thursday
141,29155341.35435195
190,0.0
2,12, 1,12, 0,11, 0.00,60.00,Thursday
141,28680930.882511463
190,0.0
2,12, 1,12, 0,12, 0.00,60.00,Thursday
141,28409091.152101316
190,0.0
2,12, 1,12, 0,13, 0.00,60.00,Thursday
141,28072735.191820256
190,0.0
2,12, 1,12, 0,14, 0.00,60.00,Thursday
141,27729096.176839095
190,0.0
2,12, 1,12, 0,15, 0.00,60.00,Thursday
141,27756265.512762625
190,0.0
2,12, 1,12, 0,16, 0.00,60.00,Thursday
141,27945367.677065216
190,0.0
2,12, 1,12, 0,17, 0.00,60.00,Thursday
141,28707905.971250907
190,0.0
2,12, 1,12, 0,18, 0.00,60.00,Thursday
141,29154906.347217143
190,0.0
2,12, 1,12, 0,19, 0.00,60.00,Thursday
141,28993006.333709434
190,0.0
2,12, 1,12, 0,20, 0.00,60.00,Thursday
141,28595424.02131295
190,0.0
2,12, 1,12, 0,21, 0.00,60.00,Thursday
141,28430897.060801443
190,0.0
2,12, 1,12, 0,22, 0.00,60.00,Thursday
141,28136408.820372455
190,0.0
2,12, 1,12, 0,23, 0.00,60.00,Thursday
141,27983571.88124975
190,0.0
2,12, 1,12, 0,24, 0.00,60.00,Thursday
141,27924947.531797618
190,0.0
2,13, 1,13, 0, 1, 0.00,60.00,Friday
141,27643337.25369426
190,0.0
2,13, 1,13, 0, 2, 0.00,60.00,Friday
141,27359952.746935237
190,0.0
2,13, 1,13, 0, 3, 0.00,60.00,Friday
141,26984579.9589657
190,0.0
2,13, 1,13, 0, 4, 0.00,60.00,Friday
141,26699920.74871626
190,0.0
2,13, 1,13, 0, 5, 0.00,60.00,Friday
141,26546088.239221986
190,0.0
2,13, 1,13, 0, 6, 0.00,60.00,Friday
141,26454722.925942004
190,0.0
2,13, 1,13, 0, 7, 0.00,60.00,Friday
141,26480480.208518337
190,0.0
2,13, 1,13, 0, 8, 0.00,60.00,Friday
141,26379519.45195108
190,0.0
2,13, 1,13, 0, 9, 0.00,60.00,Friday
141,26094445.609746926
190,0.0
2,13, 1,13, 0,10, 0.00,60.00,Friday
141,26461320.18023663
190,0.0
2,13, 1,13, 0,11, 0.00,60.00,Friday
141,26904447.337137025
190,0.0
2,13, 1,13, 0,12, 0.00,60.00,Friday
141,26894360.090781018
190,0.0
2,13, 1,13, 0,13, 0.00,60.00,Friday
141,26942217.72830605
190,0.0
2,13, 1,13, 0,14, 0.00,60.00,Friday
141,27273437.25643667
190,0.0
2,13, 1,13, 0,15, 0.00,60.00,Friday
141,27486291.814117342
190,0.0
2,13, 1,13, 0,16, 0.00,60.00,Friday
141,27483644.747403372
190,0.0
2,13, 1,13, 0,17, 0.00,60.00,Friday
141,27437773.568240073
190,0.0
2,13, 1,13, 0,18, 0.00,60.00,Friday
141,27425211.92402552
190,0.0
2,13, 1,13, 0,19, 0.00,60.00,Friday
141,27740856.596353687
190,0.0
2,13, 1,13, 0,20, 0.00,60.00,Friday
141,28282957.80485212
190,0.0
2,13, 1,13, 0,21, 0.00,60.00,Friday
141,28793725.97800747
190,0.0
2,13, 1,13, 0,22, 0.00,60.00,Friday
141,29193848.25071638
190,0.0
2,13, 1,13, 0,23, 0.00,60.00,Friday
141,29256637.175241336
190,0.0
2,13, 1,13, 0,24, 0.00,60.00,Friday
141,30726835.24983411
190,0.0
2,14, 1,14, 0, 1, 0.00,60.00,Saturday
141,31830644.859089077
190,0.0
2,14, 1,14, 0, 2, 0.00,60.00,Saturday
141,31710913.73311126
190,0.0
2,14, 1,14, 0, 3, 0.00,60.00,Saturday
141,31994264.83536356
190,0.0
2,14, 1,14, 0, 4, 0.00,60.00,Saturday
141,32044365.780375276
190,0.0
2,14, 1,14, 0, 5, 0.00,60.00,Saturday
141,32168935.634430397
190,0.0
2,14, 1,14, 0, 6, 0.00,60.00,Saturday
141,33239330.548806995
190,0.0
2,14, 1,14, 0, 7, 0.00,60.00,Saturday
141,34117890.2483437
190,0.0
2,14, 1,14, 0, 8, 0.00,60.00,Saturday
141,34137885.20923948
190,0.0
2,14, 1,14, 0, 9, 0.00,60.00,Saturday
141,34785541.91538426
190,0.0
2,14, 1,14, 0,10, 0.00,60.00,Saturday
141,35583716.70952049
190,0.0
2,14, 1,14, 0,11, 0.00,60.00,Saturday
141,35677232.648399316
190,0.0
2,14, 1,14, 0,12, 0.00,60.00,Saturday
141,35623285.507921875
190,0.0
2,14, 1,14, 0,13, 0.00,60.00,Saturday
141,35276572.76304467
190,0.0
2,14, 1,14, 0,14, 0.00,60.00,Saturday
141,34309031.421160035
190,0.0
2,14, 1,14, 0,15, 0.00,60.00,Saturday
141,34188106.13060086
190,0.0
2,14, 1,14, 0,16, 0.00,60.00,Saturday
141,34366103.33963063
190,0.0
2,14, 1,14, 0,17, 0.00,60.00,Saturday
141,34698992.75179187
190,0.0
2,14, 1,14, 0,18, 0.00,60.00,Saturday
141,35453439.20574532
190,0.0
2,14, 1,14, 0,19, 0.00,60.00,Saturday
141,35534839.27687747
190,0.0
2,14, 1,14, 0,20, 0.00,60.00,Saturday
141,35797840.15163019
190,0.0
2,14, 1,14, 0,21, 0.00,60.00,Saturday
141,35871600.18597069
190,0.0
2,14, 1,14, 0,22, 0.00,60.00,Saturday
141,35856881.8405879
190,0.0
2,14, 1,14, 0,23, 0.00,60.00,Saturday
141,35930211.2736883
190,0.0
2,14, 1,14, 0,24, 0.00,60.00,Saturday
141,36107393.48450173
190,0.0
2,15, 1,15, 0, 1, 0.00,60.00,Sunday
141,35861477.58218509
190,0.0
2,15, 1,15, 0, 2, 0.00,60.00,Sunday
141,34919477.4992335
190,0.0
2,15, 1,15, 0, 3, 0.00,60.00,Sunday
141,34503082.66085847
190,0.0
2,15, 1,15, 0, 4, 0.00,60.00,Sunday
141,34178761.64758149
190,0.0
2,15, 1,15, 0, 5, 0.00,60.00,Sunday
141,33447725.729391117
190,0.0
2,15, 1,15, 0, 6, 0.00,60.00,Sunday
141,32603193.938994437
190,0.0
2,15, 1,15, 0, 7, 0.00,60.00,Sunday
141,31703222.127305537
190,0.0
2,15, 1,15, 0, 8, 0.00,60.00,Sunday
141,31001520.901352957
190,0.0
2,15, 1,15, 0, 9, 0.00,60.00,Sunday
141,30371955.028953355
190,0.0
2,15, 1,15, 0,10, 0.00,60.00,Sunday
141,30024327.908254802
190,0.0
2,15, 1,15, 0,11, 0.00,60.00,Sunday
141,30094643.644362375
190,0.0
2,15, 1,15, 0,12, 0.00,60.00,Sunday
141,30768931.846211597
190,0.0
2,15, 1,15, 0,13, 0.00,60.00,Sunday
141,31171610.870475616
190,0.0
2,15, 1,15, 0,14, 0.00,60.00,Sunday
141,31168287.61346524
190,0.0
2,15, 1,15, 0,15, 0.00,60.00,Sunday
141,31046529.496581204
190,0.0
2,15, 1,15, 0,16, 0.00,60.00,Sunday
141,30624543.655422583
190,0.0
2,15, 1,15, 0,17, 0.00,60.00,Sunday
141,30342963.736325514
190,0.0
2,15, 1,15, 0,18, 0.00,60.00,Sunday
141,30332223.812576234
190,0.0
2,15, 1,15, 0,19, 0.00,60.00,Sunday
141,30429852.347512037
190,0.0
2,15, 1,15, 0,20, 0.00,60.00,Sunday
141,30576734.966299832
190,0.0
2,15, 1,15, 0,21, 0.00,60.00,Sunday
141,31001008.619923785
190,0.0
2,15, 1,15, 0,22, 0.00,60.00,Sunday
141,31210204.132014655
190,0.0
2,15, 1,15, 0,23, 0.00,60.00,Sunday
141,31283515.326723672
190,0.0
2,15, 1,15, 0,24, 0.00,60.00,Sunday
141,31494833.84441199
190,0.0
2,16, 1,16, 0, 1, 0.00,60.00,Monday
141,32056112.088547364
190,0.0
2,16, 1,16, 0, 2, 0.00,60.00,Monday
141,32615537.881121926
190,0.0
2,16, 1,16, 0, 3, 0.00,60.00,Monday
141,33007918.497947816
190,0.0
2,16, 1,16, 0, 4, 0.00,60.00,Monday
141,33322515.691322364
190,0.0
2,16, 1,16, 0, 5, 0.00,60.00,Monday
141,33687559.727954514
190,0.0
2,16, 1,16, 0, 6, 0.00,60.00,Monday
141,33989520.050687216
190,0.0
2,16, 1,16, 0, 7, 0.00,60.00,Monday
141,34499417.642497666
190,0.0
2,16, 1,16, 0, 8, 0.00,60.00,Monday
141,34972807.31882912
190,0.0
2,16, 1,16, 0, 9, 0.00,60.00,Monday
141,35205585.79963452
190,0.0
2,16, 1,16, 0,10, 0.00,60.00,Monday
141,35267863.81195107
190,0.0
2,16, 1,16, 0,11, 0.00,60.00,Monday
141,34403516.57726599
190,0.0
2,16, 1,16, 0,12, 0.00,60.00,Monday
141,33613017.48295236
190,0.0
2,16, 1,16, 0,13, 0.00,60.00,Monday
141,32911320.65138462
190,0.0
2,16, 1,16, 0,14, 0.00,60.00,Monday
141,32342810.64511516
190,0.0
2,16, 1,16, 0,15, 0.00,60.00,Monday
141,32170923.30248311
190,0.0
2,16, 1,16, 0,16, 0.00,60.00,Monday
141,32300039.565390803
190,0.0
2,16, 1,16, 0,17, 0.00,60.00,Monday
141,32758169.653776243
190,0.0
2,16, 1,16, 0,18, 0.00,60.00,Monday
141,33660839.53258327
190,0.0
2,16, 1,16, 0,19, 0.00,60.00,Monday
141,34596970.76842266
190,0.0
2,16, 1,16, 0,20, 0.00,60.00,Monday
141,35059847.843805924
190,0.0
2,16, 1,16, 0,21, 0.00,60.00,Monday
141,35417625.81966322
190,0.0
2,16, 1,16, 0,22, 0.00,60.00,Monday
141,35742599.14632638
190,0.0
2,16, 1,16, 0,23, 0.00,60.00,Monday
141,36239737.97559952
190,0.0
2,16, 1,16, 0,24, 0.00,60.00,Monday
141,36345034.16454987
190,0.0
2,17, 1,17, 0, 1, 0.00,60.00,Tuesday
141,36522622.22415997
190,0.0
2,17, 1,17, 0, 2, 0.00,60.00,Tuesday
141,37234145.08911465
190,0.0
2,17, 1,17, 0, 3, 0.00,60.00,Tuesday
141,37914029.82829712
190,0.0
2,17, 1,17, 0, 4, 0.00,60.00,Tuesday
141,38549455.54733622
190,0.0
2,17, 1,17, 0, 5, 0.00,60.00,Tuesday
141,39236749.31384638
190,0.0
2,17, 1,17, 0, 6, 0.00,60.00,Tuesday
141,39919641.91581628
190,0.0
2,17, 1,17, 0, 7, 0.00,60.00,Tuesday
141,40399588.18476757
190,0.0
2,17, 1,17, 0, 8, 0.00,60.00,Tuesday
141,40741308.4223766
190,0.0
2,17, 1,17, 0, 9, 0.00,60.00,Tuesday
141,40959305.12765348
190,0.0
2,17, 1,17, 0,10, 0.00,60.00,Tuesday
141,40089508.65270475
190,0.0
2,17, 1,17, 0,11, 0.00,60.00,Tuesday
141,38710192.03648951
190,0.0
2,17, 1,17, 0,12, 0.00,60.00,Tuesday
141,37485422.995468535
190,0.0
2,17, 1,17, 0,13, 0.00,60.00,Tuesday
141,36675206.861471474
190,0.0
2,17, 1,17, 0,14, 0.00,60.00,Tuesday
141,36285988.790770575
190,0.0
2,17, 1,17, 0,15, 0.00,60.00,Tuesday
141,36155863.72012297
190,0.0
2,17, 1,17, 0,16, 0.00,60.00,Tuesday
141,36434957.248440206
190,0.0
2,17, 1,17, 0,17, 0.00,60.00,Tuesday
141,36537961.34260209
190,0.0
2,17, 1,17, 0,18, 0.00,60.00,Tuesday
141,36140856.15432232
190,0.0
2,17, 1,17, 0,19, 0.00,60.00,Tuesday
141,35716535.86281753
190,0.0
2,17, 1,17, 0,20, 0.00,60.00,Tuesday
141,35600814.511718296
190,0.0
2,17, 1,17, 0,21, 0.00,60.00,Tuesday
141,35694887.74775572
190,0.0
2,17, 1,17, 0,22, 0.00,60.00,Tuesday
141,35682182.50101927
190,0.0
2,17, 1,17, 0,23, 0.00,60.00,Tuesday
141,35728177.82310658
190,0.0
2,17, 1,17, 0,24, 0.00,60.00,Tuesday
141,36115587.28125342
190,0.0
2,18, 1,18, 0, 1, 0.00,60.00,Wednesday
141,36434057.81136141
190,0.0
2,18, 1,18, 0, 2, 0.00,60.00,Wednesday
141,36767835.66914497
190,0.0
2,18, 1,18, 0, 3, 0.00,60.00,Wednesday
141,37062448.38217874
190,0.0
2,18, 1,18, 0, 4, 0.00,60.00,Wednesday
141,37301359.04661773
190,0.0
2,18, 1,18, 0, 5, 0.00,60.00,Wednesday
141,37568036.69793478
190,0.0
2,18, 1,18, 0, 6, 0.00,60.00,Wednesday
141,37863553.37850209
190,0.0
2,18, 1,18, 0, 7, 0.00,60.00,Wednesday
141,38561610.503065124
190,0.0
2,18, 1,18, 0, 8, 0.00,60.00,Wednesday
141,38855677.56245925
190,0.0
2,18, 1,18, 0, 9, 0.00,60.00,Wednesday
141,39049388.09854819
190,0.0
2,18, 1,18, 0,10, 0.00,60.00,Wednesday
141,39106746.999754205
190,0.0
2,18, 1,18, 0,11, 0.00,60.00,Wednesday
141,38668716.013693094
190,0.0
2,18, 1,18, 0,12, 0.00,60.00,Wednesday
141,38328367.48244533
190,0.0
2,18, 1,18, 0,13, 0.00,60.00,Wednesday
141,38527267.023412794
190,0.0
2,18, 1,18, 0,14, 0.00,60.00,Wednesday
141,38895346.64657518
190,0.0
2,18, 1,18, 0,15, 0.00,60.00,Wednesday
141,39047691.293973
190,0.0
2,18, 1,18, 0,16, 0.00,60.00,Wednesday
141,39414844.54821802
190,0.0
2,18, 1,18, 0,17, 0.00,60.00,Wednesday
141,39555171.74755516
190,0.0
2,18, 1,18, 0,18, 0.00,60.00,Wednesday
141,39315905.00904885
190,0.0
2,18, 1,18, 0,19, 0.00,60.00,Wednesday
141,39197542.305676416
190,0.0
2,18, 1,18, 0,20, 0.00,60.00,Wednesday
141,39269974.7766152
190,0.0
2,18, 1,18, 0,21, 0.00,60.00,Wednesday
141,39334475.17480943
190,0.0
2,18, 1,18, 0,22, 0.00,60.00,Wednesday
141,39489498.28850542
190,0.0
2,18, 1,18, 0,23, 0.00,60.00,Wednesday
141,39601740.80114005
190,0.0
2,18, 1,18, 0,24, 0.00,60.00,Wednesday
141,39744765.98946291
190,0.0
2,19, 1,19, 0, 1, 0.00,60.00,Thursday
141,39580116.59821406
190,0.0
2,19, 1,19, 0, 2, 0.00,60.00,Thursday
141,39656605.29596861
190,0.0