Program Version,EnergyPlus, Version 24.2.0-94a887817b, YMD=2025.04.24 13:21
1,5,Environment Title[],Latitude[deg],Longitude[deg],Time Zone[],Elevation[m]
2,8,Day of Simulation[],Month[],Day of Month[],DST Indicator[1=yes 0=no],Hour[],StartMinute[],EndMinute[],DayType
3,5,Cumulative Day of Simulation[],Month[],Day of Month[],DST Indicator[1=yes 0=no],DayType  ! When Daily Report Variables Requested
4,2,Cumulative Days of Simulation[],Month[]  ! When Monthly Report Variables Requested
5,1,Cumulative Days of Simulation[] ! When Run Period Report Variables Requested
6,1,Calendar Year of Simulation[] ! When Annual Report Variables Requested
141,1,ZONE_0599100000751770 IDEAL LOADS AIR SYSTEM,Zone Ideal Loads Supply Air Total Heating Energy [J] !Hourly
190,1,ZONE_0599100000751770 IDEAL LOADS AIR SYSTEM,Zone Ideal Loads Supply Air Total Cooling Energy [J] !Hourly
End of Data Dictionary
1,RUN PERIOD 1,  51.96,   4.45,   1.00,  -4.50
2,1, 1, 1, 0, 1, 0.00,60.00,Sunday
141,31146553.238095812
190,0.0
2,1, 1, 1, 0, 2, 0.00,60.00,Sunday
141,32218185.232056245
190,0.0
2,1, 1, 1, 0, 3, 0.00,60.00,Sunday
141,32207587.538868695
190,0.0
2,1, 1, 1, 0, 4, 0.00,60.00,Sunday
141,32997298.952615526
190,0.0
2,1, 1, 1, 0, 5, 0.00,60.00,Sunday
141,33534344.937053144
190,0.0
2,1, 1, 1, 0, 6, 0.00,60.00,Sunday
141,33591928.098494045
190,0.0
2,1, 1, 1, 0, 7, 0.00,60.00,Sunday
141,33685201.52691754
190,0.0
2,1, 1, 1, 0, 8, 0.00,60.00,Sunday
141,33609815.317144014
190,0.0
2,1, 1, 1, 0, 9, 0.00,60.00,Sunday
141,33542723.737235267
190,0.0
2,1, 1, 1, 0,10, 0.00,60.00,Sunday
141,33283720.407690592
190,0.0
2,1, 1, 1, 0,11, 0.00,60.00,Sunday
141,32621693.45775415
190,0.0
2,1, 1, 1, 0,12, 0.00,60.00,Sunday
141,31552217.45046252
190,0.0
2,1, 1, 1, 0,13, 0.00,60.00,Sunday
141,31026805.16067546
190,0.0
2,1, 1, 1, 0,14, 0.00,60.00,Sunday
141,30303402.404890936
190,0.0
2,1, 1, 1, 0,15, 0.00,60.00,Sunday
141,29802684.00246328
190,0.0
2,1, 1, 1, 0,16, 0.00,60.00,Sunday
141,30296817.243335955
190,0.0
2,1, 1, 1, 0,17, 0.00,60.00,Sunday
141,30919476.770197112
190,0.0
2,1, 1, 1, 0,18, 0.00,60.00,Sunday
141,31121362.53378255
190,0.0
2,1, 1, 1, 0,19, 0.00,60.00,Sunday
141,31299651.956373826
190,0.0
2,1, 1, 1, 0,20, 0.00,60.00,Sunday
141,31272593.99939605
190,0.0
2,1, 1, 1, 0,21, 0.00,60.00,Sunday
141,31175666.150526814
190,0.0
2,1, 1, 1, 0,22, 0.00,60.00,Sunday
141,31247079.512368128
190,0.0
2,1, 1, 1, 0,23, 0.00,60.00,Sunday
141,30505531.5102952
190,0.0
2,1, 1, 1, 0,24, 0.00,60.00,Sunday
141,29954383.783104282
190,0.0
2,2, 1, 2, 0, 1, 0.00,60.00,Monday
141,30054097.244913325
190,0.0
2,2, 1, 2, 0, 2, 0.00,60.00,Monday
141,29303743.965126056
190,0.0
2,2, 1, 2, 0, 3, 0.00,60.00,Monday
141,28727358.236988455
190,0.0
2,2, 1, 2, 0, 4, 0.00,60.00,Monday
141,28143670.146831848
190,0.0
2,2, 1, 2, 0, 5, 0.00,60.00,Monday
141,26867175.40372773
190,0.0
2,2, 1, 2, 0, 6, 0.00,60.00,Monday
141,26261668.67160301
190,0.0
2,2, 1, 2, 0, 7, 0.00,60.00,Monday
141,25311440.937086437
190,0.0
2,2, 1, 2, 0, 8, 0.00,60.00,Monday
141,24154748.055442665
190,0.0
2,2, 1, 2, 0, 9, 0.00,60.00,Monday
141,24525542.9078066
190,0.0
2,2, 1, 2, 0,10, 0.00,60.00,Monday
141,25407648.566565026
190,0.0
2,2, 1, 2, 0,11, 0.00,60.00,Monday
141,26013758.120882183
190,0.0
2,2, 1, 2, 0,12, 0.00,60.00,Monday
141,25534478.420456056
190,0.0
2,2, 1, 2, 0,13, 0.00,60.00,Monday
141,25346224.064753678
190,0.0
2,2, 1, 2, 0,14, 0.00,60.00,Monday
141,25962708.15525871
190,0.0
2,2, 1, 2, 0,15, 0.00,60.00,Monday
141,26227411.244886495
190,0.0
2,2, 1, 2, 0,16, 0.00,60.00,Monday
141,26791683.67221002
190,0.0
2,2, 1, 2, 0,17, 0.00,60.00,Monday
141,27336459.60836007
190,0.0
2,2, 1, 2, 0,18, 0.00,60.00,Monday
141,27420603.980465367
190,0.0
2,2, 1, 2, 0,19, 0.00,60.00,Monday
141,28010351.29647635
190,0.0
2,2, 1, 2, 0,20, 0.00,60.00,Monday
141,28544678.28517643
190,0.0
2,2, 1, 2, 0,21, 0.00,60.00,Monday
141,28604570.98079021
190,0.0
2,2, 1, 2, 0,22, 0.00,60.00,Monday
141,28553073.69334958
190,0.0
2,2, 1, 2, 0,23, 0.00,60.00,Monday
141,28538607.93823748
190,0.0
2,2, 1, 2, 0,24, 0.00,60.00,Monday
141,28535896.285529062
190,0.0
2,3, 1, 3, 0, 1, 0.00,60.00,Tuesday
141,28552939.22312885
190,0.0
2,3, 1, 3, 0, 2, 0.00,60.00,Tuesday
141,28518687.47748151
190,0.0
2,3, 1, 3, 0, 3, 0.00,60.00,Tuesday
141,28468231.055282813
190,0.0
2,3, 1, 3, 0, 4, 0.00,60.00,Tuesday
141,28535496.38981109
190,0.0
2,3, 1, 3, 0, 5, 0.00,60.00,Tuesday
141,29224397.043149717
190,0.0
2,3, 1, 3, 0, 6, 0.00,60.00,Tuesday
141,29664365.225323066
190,0.0
2,3, 1, 3, 0, 7, 0.00,60.00,Tuesday
141,29867106.007218502
190,0.0
2,3, 1, 3, 0, 8, 0.00,60.00,Tuesday
141,29789008.950670354
190,0.0
2,3, 1, 3, 0, 9, 0.00,60.00,Tuesday
141,30356218.3412053
190,0.0
2,3, 1, 3, 0,10, 0.00,60.00,Tuesday
141,30624762.382231787
190,0.0
2,3, 1, 3, 0,11, 0.00,60.00,Tuesday
141,30687168.08534103
190,0.0
2,3, 1, 3, 0,12, 0.00,60.00,Tuesday
141,30856482.863565817
190,0.0
2,3, 1, 3, 0,13, 0.00,60.00,Tuesday
141,31742853.5942037
190,0.0
2,3, 1, 3, 0,14, 0.00,60.00,Tuesday
141,32227984.648917325
190,0.0
2,3, 1, 3, 0,15, 0.00,60.00,Tuesday
141,32117230.803690374
190,0.0
2,3, 1, 3, 0,16, 0.00,60.00,Tuesday
141,32017808.513421364
190,0.0
2,3, 1, 3, 0,17, 0.00,60.00,Tuesday
141,32046036.812623244
190,0.0
2,3, 1, 3, 0,18, 0.00,60.00,Tuesday
141,32118079.045310643
190,0.0
2,3, 1, 3, 0,19, 0.00,60.00,Tuesday
141,31974505.916550063
190,0.0
2,3, 1, 3, 0,20, 0.00,60.00,Tuesday
141,31273868.31643502
190,0.0
2,3, 1, 3, 0,21, 0.00,60.00,Tuesday
141,29380768.424623355
190,0.0
2,3, 1, 3, 0,22, 0.00,60.00,Tuesday
141,28365212.90227553
190,0.0
2,3, 1, 3, 0,23, 0.00,60.00,Tuesday
141,29089491.18039697
190,0.0
2,3, 1, 3, 0,24, 0.00,60.00,Tuesday
141,30325219.045434646
190,0.0
2,4, 1, 4, 0, 1, 0.00,60.00,Wednesday
141,30941344.574349962
190,0.0
2,4, 1, 4, 0, 2, 0.00,60.00,Wednesday
141,30845017.809285954
190,0.0
2,4, 1, 4, 0, 3, 0.00,60.00,Wednesday
141,30659252.046095096
190,0.0
2,4, 1, 4, 0, 4, 0.00,60.00,Wednesday
141,30867586.410939436
190,0.0
2,4, 1, 4, 0, 5, 0.00,60.00,Wednesday
141,31687384.838808894
190,0.0
2,4, 1, 4, 0, 6, 0.00,60.00,Wednesday
141,31470771.565753512
190,0.0
2,4, 1, 4, 0, 7, 0.00,60.00,Wednesday
141,31429346.921649642
190,0.0
2,4, 1, 4, 0, 8, 0.00,60.00,Wednesday
141,31756869.20277676
190,0.0
2,4, 1, 4, 0, 9, 0.00,60.00,Wednesday
141,31993195.693172023
190,0.0
2,4, 1, 4, 0,10, 0.00,60.00,Wednesday
141,32184323.217457645
190,0.0
2,4, 1, 4, 0,11, 0.00,60.00,Wednesday
141,30699155.5387551
190,0.0
2,4, 1, 4, 0,12, 0.00,60.00,Wednesday
141,28185856.000174843
190,0.0
2,4, 1, 4, 0,13, 0.00,60.00,Wednesday
141,27511369.279193386
190,0.0
2,4, 1, 4, 0,14, 0.00,60.00,Wednesday
141,27422395.92402782
190,0.0
2,4, 1, 4, 0,15, 0.00,60.00,Wednesday
141,27184646.23203764
190,0.0
2,4, 1, 4, 0,16, 0.00,60.00,Wednesday
141,28221596.73627574
190,0.0
2,4, 1, 4, 0,17, 0.00,60.00,Wednesday
141,30075859.583152935
190,0.0
2,4, 1, 4, 0,18, 0.00,60.00,Wednesday
141,31682100.4496807
190,0.0
2,4, 1, 4, 0,19, 0.00,60.00,Wednesday
141,33312635.938753404
190,0.0
2,4, 1, 4, 0,20, 0.00,60.00,Wednesday
141,34164115.64016127
190,0.0
2,4, 1, 4, 0,21, 0.00,60.00,Wednesday
141,34541454.673395626
190,0.0
2,4, 1, 4, 0,22, 0.00,60.00,Wednesday
141,35315805.08308432
190,0.0
2,4, 1, 4, 0,23, 0.00,60.00,Wednesday
141,34948189.615237094
190,0.0
2,4, 1, 4, 0,24, 0.00,60.00,Wednesday
141,34340564.99986144
190,0.0
2,5, 1, 5, 0, 1, 0.00,60.00,Thursday
141,34521278.13342367
190,0.0
2,5, 1, 5, 0, 2, 0.00,60.00,Thursday
141,34091821.85272765
190,0.0
2,5, 1, 5, 0, 3, 0.00,60.00,Thursday
141,33679260.14994774
190,0.0
2,5, 1, 5, 0, 4, 0.00,60.00,Thursday
141,33737062.47241249
190,0.0
2,5, 1, 5, 0, 5, 0.00,60.00,Thursday
141,33284220.026719645
190,0.0
2,5, 1, 5, 0, 6, 0.00,60.00,Thursday
141,33094309.256398384
190,0.0
2,5, 1, 5, 0, 7, 0.00,60.00,Thursday
141,33391565.073144305
190,0.0
2,5, 1, 5, 0, 8, 0.00,60.00,Thursday
141,33657557.428966805
190,0.0
2,5, 1, 5, 0, 9, 0.00,60.00,Thursday
141,33760359.986405484
190,0.0
2,5, 1, 5, 0,10, 0.00,60.00,Thursday
141,34258023.09603551
190,0.0
2,5, 1, 5, 0,11, 0.00,60.00,Thursday
141,34140326.9400566
190,0.0
2,5, 1, 5, 0,12, 0.00,60.00,Thursday
141,33072332.634914517
190,0.0
2,5, 1, 5, 0,13, 0.00,60.00,Thursday
141,32705037.72431527
190,0.0
2,5, 1, 5, 0,14, 0.00,60.00,Thursday
141,31942324.320611827
190,0.0
2,5, 1, 5, 0,15, 0.00,60.00,Thursday
141,31339710.12325058
190,0.0
2,5, 1, 5, 0,16, 0.00,60.00,Thursday
141,31853601.92657346
190,0.0
2,5, 1, 5, 0,17, 0.00,60.00,Thursday
141,31739518.563647
190,0.0
2,5, 1, 5, 0,18, 0.00,60.00,Thursday
141,31416620.665515095
190,0.0
2,5, 1, 5, 0,19, 0.00,60.00,Thursday
141,31614554.7111789
190,0.0
2,5, 1, 5, 0,20, 0.00,60.00,Thursday
141,31587728.135134853
190,0.0
2,5, 1, 5, 0,21, 0.00,60.00,Thursday
141,31484318.761110216
190,0.0
2,5, 1, 5, 0,22, 0.00,60.00,Thursday
141,31517350.91104634
190,0.0
2,5, 1, 5, 0,23, 0.00,60.00,Thursday
141,31690782.040762737
190,0.0
2,5, 1, 5, 0,24, 0.00,60.00,Thursday
141,31878344.556436878
190,0.0
2,6, 1, 6, 0, 1, 0.00,60.00,Friday
141,32005343.933205172
190,0.0
2,6, 1, 6, 0, 2, 0.00,60.00,Friday
141,32126548.04054237
190,0.0
2,6, 1, 6, 0, 3, 0.00,60.00,Friday
141,32852471.12062204
190,0.0
2,6, 1, 6, 0, 4, 0.00,60.00,Friday
141,33555047.86680832
190,0.0
2,6, 1, 6, 0, 5, 0.00,60.00,Friday
141,33924743.16186571
190,0.0
2,6, 1, 6, 0, 6, 0.00,60.00,Friday
141,34372384.74956454
190,0.0
2,6, 1, 6, 0, 7, 0.00,60.00,Friday
141,35029659.113464884
190,0.0
2,6, 1, 6, 0, 8, 0.00,60.00,Friday
141,35650128.34193867
190,0.0
2,6, 1, 6, 0, 9, 0.00,60.00,Friday
141,36395545.487946674
190,0.0
2,6, 1, 6, 0,10, 0.00,60.00,Friday
141,36837727.98072953
190,0.0
2,6, 1, 6, 0,11, 0.00,60.00,Friday
141,36342794.945329234
190,0.0
2,6, 1, 6, 0,12, 0.00,60.00,Friday
141,35569065.36933843
190,0.0
2,6, 1, 6, 0,13, 0.00,60.00,Friday
141,35202035.83544879
190,0.0
2,6, 1, 6, 0,14, 0.00,60.00,Friday
141,35053730.61939783
190,0.0
2,6, 1, 6, 0,15, 0.00,60.00,Friday
141,34846011.84440047
190,0.0
2,6, 1, 6, 0,16, 0.00,60.00,Friday
141,34362198.55073146
190,0.0
2,6, 1, 6, 0,17, 0.00,60.00,Friday
141,33862351.64230601
190,0.0
2,6, 1, 6, 0,18, 0.00,60.00,Friday
141,33625417.398034394
190,0.0
2,6, 1, 6, 0,19, 0.00,60.00,Friday
141,33348285.413938176
190,0.0
2,6, 1, 6, 0,20, 0.00,60.00,Friday
141,32670035.473223075
190,0.0
2,6, 1, 6, 0,21, 0.00,60.00,Friday
141,30968671.235784773
190,0.0
2,6, 1, 6, 0,22, 0.00,60.00,Friday
141,28931791.816686135
190,0.0
2,6, 1, 6, 0,23, 0.00,60.00,Friday
141,28022941.604834188
190,0.0
2,6, 1, 6, 0,24, 0.00,60.00,Friday
141,28226991.46354677
190,0.0
2,7, 1, 7, 0, 1, 0.00,60.00,Saturday
141,29845671.47398891
190,0.0
2,7, 1, 7, 0, 2, 0.00,60.00,Saturday
141,31458786.098944
190,0.0
2,7, 1, 7, 0, 3, 0.00,60.00,Saturday
141,31230949.701872706
190,0.0
2,7, 1, 7, 0, 4, 0.00,60.00,Saturday
141,31360379.447732292
190,0.0
2,7, 1, 7, 0, 5, 0.00,60.00,Saturday
141,32460293.523075446
190,0.0
2,7, 1, 7, 0, 6, 0.00,60.00,Saturday
141,33319710.069029357
190,0.0
2,7, 1, 7, 0, 7, 0.00,60.00,Saturday
141,33821142.95227908
190,0.0
2,7, 1, 7, 0, 8, 0.00,60.00,Saturday
141,34064973.90759745
190,0.0
2,7, 1, 7, 0, 9, 0.00,60.00,Saturday
141,33442294.55050118
190,0.0
2,7, 1, 7, 0,10, 0.00,60.00,Saturday
141,32883363.715993106
190,0.0
2,7, 1, 7, 0,11, 0.00,60.00,Saturday
141,31256013.292628925
190,0.0
2,7, 1, 7, 0,12, 0.00,60.00,Saturday
141,29617762.799280867
190,0.0
2,7, 1, 7, 0,13, 0.00,60.00,Saturday
141,28431830.717890665
190,0.0
2,7, 1, 7, 0,14, 0.00,60.00,Saturday
141,27844522.10780243
190,0.0
2,7, 1, 7, 0,15, 0.00,60.00,Saturday
141,28130148.162234545
190,0.0
2,7, 1, 7, 0,16, 0.00,60.00,Saturday
141,28710110.50956914
190,0.0
2,7, 1, 7, 0,17, 0.00,60.00,Saturday
141,29201138.60493054
190,0.0
2,7, 1, 7, 0,18, 0.00,60.00,Saturday
141,30027727.178377282
190,0.0
2,7, 1, 7, 0,19, 0.00,60.00,Saturday
141,30797952.76356488
190,0.0
2,7, 1, 7, 0,20, 0.00,60.00,Saturday
141,31534987.353552036
190,0.0
2,7, 1, 7, 0,21, 0.00,60.00,Saturday
141,32057963.457979456
190,0.0
2,7, 1, 7, 0,22, 0.00,60.00,Saturday
141,32081500.502026778
190,0.0
2,7, 1, 7, 0,23, 0.00,60.00,Saturday
141,32168183.626166157
190,0.0
2,7, 1, 7, 0,24, 0.00,60.00,Saturday
141,32109093.647612043
190,0.0
2,8, 1, 8, 0, 1, 0.00,60.00,Sunday
141,31609549.48188551
190,0.0
2,8, 1, 8, 0, 2, 0.00,60.00,Sunday
141,31026185.858840935
190,0.0
2,8, 1, 8, 0, 3, 0.00,60.00,Sunday
141,30495672.577800047
190,0.0
2,8, 1, 8, 0, 4, 0.00,60.00,Sunday
141,29745535.390143216
190,0.0
2,8, 1, 8, 0, 5, 0.00,60.00,Sunday
141,28838386.10520122
190,0.0
2,8, 1, 8, 0, 6, 0.00,60.00,Sunday
141,28155013.63817633
190,0.0
2,8, 1, 8, 0, 7, 0.00,60.00,Sunday
141,27632005.823325746
190,0.0
2,8, 1, 8, 0, 8, 0.00,60.00,Sunday
141,27183762.318818916
190,0.0
2,8, 1, 8, 0, 9, 0.00,60.00,Sunday
141,26717559.270610213
190,0.0
2,8, 1, 8, 0,10, 0.00,60.00,Sunday
141,26564246.193118364
190,0.0
2,8, 1, 8, 0,11, 0.00,60.00,Sunday
141,26447278.433434207
190,0.0
2,8, 1, 8, 0,12, 0.00,60.00,Sunday
141,26537387.683527708
190,0.0
2,8, 1, 8, 0,13, 0.00,60.00,Sunday
141,26451334.348391317
190,0.0
2,8, 1, 8, 0,14, 0.00,60.00,Sunday
141,26559338.783287466
190,0.0
2,8, 1, 8, 0,15, 0.00,60.00,Sunday
141,27553780.95961693
190,0.0
2,8, 1, 8, 0,16, 0.00,60.00,Sunday
141,28270142.377907023
190,0.0
2,8, 1, 8, 0,17, 0.00,60.00,Sunday
141,28304890.66796326
190,0.0
2,8, 1, 8, 0,18, 0.00,60.00,Sunday
141,28619770.90706133
190,0.0
2,8, 1, 8, 0,19, 0.00,60.00,Sunday
141,28443883.80273921
190,0.0
2,8, 1, 8, 0,20, 0.00,60.00,Sunday
141,27837742.983325984
190,0.0
2,8, 1, 8, 0,21, 0.00,60.00,Sunday
141,27399606.809329458
190,0.0
2,8, 1, 8, 0,22, 0.00,60.00,Sunday
141,27515964.649009243
190,0.0
2,8, 1, 8, 0,23, 0.00,60.00,Sunday
141,27624407.827988807
190,0.0
2,8, 1, 8, 0,24, 0.00,60.00,Sunday
141,27974008.9957193
190,0.0
2,9, 1, 9, 0, 1, 0.00,60.00,Monday
141,28035221.547922995
190,0.0
2,9, 1, 9, 0, 2, 0.00,60.00,Monday
141,28069155.014551975
190,0.0
2,9, 1, 9, 0, 3, 0.00,60.00,Monday
141,27975346.452581663
190,0.0
2,9, 1, 9, 0, 4, 0.00,60.00,Monday
141,27749619.354008757
190,0.0
2,9, 1, 9, 0, 5, 0.00,60.00,Monday
141,27251931.552310005
190,0.0
2,9, 1, 9, 0, 6, 0.00,60.00,Monday
141,26748860.676077664
190,0.0
2,9, 1, 9, 0, 7, 0.00,60.00,Monday
141,26384829.02373718
190,0.0
2,9, 1, 9, 0, 8, 0.00,60.00,Monday
141,26185948.658712506
190,0.0
2,9, 1, 9, 0, 9, 0.00,60.00,Monday
141,25647764.9911817
190,0.0
2,9, 1, 9, 0,10, 0.00,60.00,Monday
141,24344333.183975212
190,0.0
2,9, 1, 9, 0,11, 0.00,60.00,Monday
141,23234166.33316985
190,0.0
2,9, 1, 9, 0,12, 0.00,60.00,Monday
141,22620183.260047566
190,0.0
2,9, 1, 9, 0,13, 0.00,60.00,Monday
141,22114339.004840255
190,0.0
2,9, 1, 9, 0,14, 0.00,60.00,Monday
141,21747399.459497847
190,0.0
2,9, 1, 9, 0,15, 0.00,60.00,Monday
141,21623471.84267176
190,0.0
2,9, 1, 9, 0,16, 0.00,60.00,Monday
141,21888895.871288303
190,0.0
2,9, 1, 9, 0,17, 0.00,60.00,Monday
141,22776251.116927847
190,0.0
2,9, 1, 9, 0,18, 0.00,60.00,Monday
141,23613268.585711908
190,0.0
2,9, 1, 9, 0,19, 0.00,60.00,Monday
141,23548055.221765943
190,0.0
2,9, 1, 9, 0,20, 0.00,60.00,Monday
141,22383078.80533104
190,0.0
2,9, 1, 9, 0,21, 0.00,60.00,Monday
141,21204994.713377114
190,0.0
2,9, 1, 9, 0,22, 0.00,60.00,Monday
141,20481947.531392805
190,0.0
2,9, 1, 9, 0,23, 0.00,60.00,Monday
141,20345655.704355713
190,0.0
2,9, 1, 9, 0,24, 0.00,60.00,Monday
141,20417761.973691992
190,0.0
2,10, 1,10, 0, 1, 0.00,60.00,Tuesday
141,20739938.033174768
190,0.0
2,10, 1,10, 0, 2, 0.00,60.00,Tuesday
141,20960127.892730735
190,0.0
2,10, 1,10, 0, 3, 0.00,60.00,Tuesday
141,20999221.375038754
190,0.0
2,10, 1,10, 0, 4, 0.00,60.00,Tuesday
141,21361839.17557958
190,0.0
2,10, 1,10, 0, 5, 0.00,60.00,Tuesday
141,21497067.179140553
190,0.0
2,10, 1,10, 0, 6, 0.00,60.00,Tuesday
141,21543649.82005422
190,0.0
2,10, 1,10, 0, 7, 0.00,60.00,Tuesday
141,21598823.81223665
190,0.0
2,10, 1,10, 0, 8, 0.00,60.00,Tuesday
141,21479600.907908898
190,0.0
2,10, 1,10, 0, 9, 0.00,60.00,Tuesday
141,21305448.708379723
190,0.0
2,10, 1,10, 0,10, 0.00,60.00,Tuesday
141,21064941.37263403
190,0.0
2,10, 1,10, 0,11, 0.00,60.00,Tuesday
141,20708993.388108507
190,0.0
2,10, 1,10, 0,12, 0.00,60.00,Tuesday
141,20299815.84709107
190,0.0
2,10, 1,10, 0,13, 0.00,60.00,Tuesday
141,20238566.380552173
190,0.0
2,10, 1,10, 0,14, 0.00,60.00,Tuesday
141,21766551.86348131
190,0.0
2,10, 1,10, 0,15, 0.00,60.00,Tuesday
141,23002061.336408462
190,0.0
2,10, 1,10, 0,16, 0.00,60.00,Tuesday
141,23763773.81758961
190,0.0
2,10, 1,10, 0,17, 0.00,60.00,Tuesday
141,24546343.757591963
190,0.0
2,10, 1,10, 0,18, 0.00,60.00,Tuesday
141,25558595.15641563
190,0.0
2,10, 1,10, 0,19, 0.00,60.00,Tuesday
141,26091792.27934102
190,0.0
2,10, 1,10, 0,20, 0.00,60.00,Tuesday
141,26488591.02595976
190,0.0
2,10, 1,10, 0,21, 0.00,60.00,Tuesday
141,27117849.0320819
190,0.0
2,10, 1,10, 0,22, 0.00,60.00,Tuesday
141,27471374.588899467
190,0.0
2,10, 1,10, 0,23, 0.00,60.00,Tuesday
141,27232258.66774157
190,0.0
2,10, 1,10, 0,24, 0.00,60.00,Tuesday
141,27635376.360004656
190,0.0
2,11, 1,11, 0, 1, 0.00,60.00,Wednesday
141,27687298.2083685
190,0.0
2,11, 1,11, 0, 2, 0.00,60.00,Wednesday
141,27736918.57943909
190,0.0
2,11, 1,11, 0, 3, 0.00,60.00,Wednesday
141,27949715.31181526
190,0.0
2,11, 1,11, 0, 4, 0.00,60.00,Wednesday
141,27612062.36290507
190,0.0
2,11, 1,11, 0, 5, 0.00,60.00,Wednesday
141,27365386.460261278
190,0.0
2,11, 1,11, 0, 6, 0.00,60.00,Wednesday
141,27262215.286326695
190,0.0
2,11, 1,11, 0, 7, 0.00,60.00,Wednesday
141,27335272.70688183
190,0.0
2,11, 1,11, 0, 8, 0.00,60.00,Wednesday
141,27428466.010050897
190,0.0
2,11, 1,11, 0, 9, 0.00,60.00,Wednesday
141,27355611.710538935
190,0.0
2,11, 1,11, 0,10, 0.00,60.00,Wednesday
141,27169340.976842374
190,0.0
2,11, 1,11, 0,11, 0.00,60.00,Wednesday
141,26859346.67772544
190,0.0
2,11, 1,11, 0,12, 0.00,60.00,Wednesday
141,26354526.58239621
190,0.0
2,11, 1,11, 0,13, 0.00,60.00,Wednesday
141,25966909.63055396
190,0.0
2,11, 1,11, 0,14, 0.00,60.00,Wednesday
141,25805882.464613616
190,0.0
2,11, 1,11, 0,15, 0.00,60.00,Wednesday
141,25768821.497942492
190,0.0
2,11, 1,11, 0,16, 0.00,60.00,Wednesday
141,25789437.945656024
190,0.0
2,11, 1,11, 0,17, 0.00,60.00,Wednesday
141,25522910.27085746
190,0.0
2,11, 1,11, 0,18, 0.00,60.00,Wednesday
141,25267813.965486012
190,0.0
2,11, 1,11, 0,19, 0.00,60.00,Wednesday
141,25092967.587494045
190,0.0
2,11, 1,11, 0,20, 0.00,60.00,Wednesday
141,25079147.694719136
190,0.0
2,11, 1,11, 0,21, 0.00,60.00,Wednesday
141,25076079.440007865
190,0.0
2,11, 1,11, 0,22, 0.00,60.00,Wednesday
141,24531957.589113377
190,0.0
2,11, 1,11, 0,23, 0.00,60.00,Wednesday
141,24112290.23371242
190,0.0
2,11, 1,11, 0,24, 0.00,60.00,Wednesday
141,24147746.596912343
190,0.0
2,12, 1,12, 0, 1, 0.00,60.00,Thursday
141,24353584.50724931
190,0.0
2,12, 1,12, 0, 2, 0.00,60.00,Thursday
141,24385715.674802832
190,0.0
2,12, 1,12, 0, 3, 0.00,60.00,Thursday
141,24262573.72466619
190,0.0
2,12, 1,12, 0, 4, 0.00,60.00,Thursday
141,24286938.675018005
190,0.0
2,12, 1,12, 0, 5, 0.00,60.00,Thursday
141,24484548.61247669
190,0.0
2,12, 1,12, 0, 6, 0.00,60.00,Thursday
141,24942751.620937645
190,0.0
2,12, 1,12, 0, 7, 0.00,60.00,Thursday
141,25193021.240334176
190,0.0
2,12, 1,12, 0, 8, 0.00,60.00,Thursday
141,25258476.047201924
190,0.0
2,12, 1,12, 0, 9, 0.00,60.00,Thursday
141,24945267.594404757
190,0.0
2,12, 1,12, 0,10, 0.00,60.00,Thursday
141,24257597.826045603
190,0.0
2,12, 1,12, 0,11, 0.00,60.00,Thursday
141,23734237.409546554
190,0.0
2,12, 1,12, 0,12, 0.00,60.00,Thursday
141,23436066.369966213
190,0.0
2,12, 1,12, 0,13, 0.00,60.00,Thursday
141,23043828.77701751
190,0.0
2,12, 1,12, 0,14, 0.00,60.00,Thursday
141,22619873.366597172
190,0.0
2,12, 1,12, 0,15, 0.00,60.00,Thursday
141,22605611.260862984
190,0.0
2,12, 1,12, 0,16, 0.00,60.00,Thursday
141,22776608.463073846
190,0.0
2,12, 1,12, 0,17, 0.00,60.00,Thursday
141,23609932.94291334
190,0.0
2,12, 1,12, 0,18, 0.00,60.00,Thursday
141,24096672.40541113
190,0.0
2,12, 1,12, 0,19, 0.00,60.00,Thursday
141,23898330.93699948
190,0.0
2,12, 1,12, 0,20, 0.00,60.00,Thursday
141,23434996.237817768
190,0.0
2,12, 1,12, 0,21, 0.00,60.00,Thursday
141,23244778.482886806
190,0.0
2,12, 1,12, 0,22, 0.00,60.00,Thursday
141,22930593.612504624
190,0.0
2,12, 1,12, 0,23, 0.00,60.00,Thursday
141,22811701.27413776
190,0.0
2,12, 1,12, 0,24, 0.00,60.00,Thursday
141,22832921.519234452
190,0.0
2,13, 1,13, 0, 1, 0.00,60.00,Friday
141,22628014.430235557
190,0.0
2,13, 1,13, 0, 2, 0.00,60.00,Friday
141,22440616.859089665
190,0.0
2,13, 1,13, 0, 3, 0.00,60.00,Friday
141,22161348.87202599
190,0.0
2,13, 1,13, 0, 4, 0.00,60.00,Friday
141,21992165.696855627
190,0.0
2,13, 1,13, 0, 5, 0.00,60.00,Friday
141,21976455.94466482
190,0.0
2,13, 1,13, 0, 6, 0.00,60.00,Friday
141,22032350.527831264
190,0.0
2,13, 1,13, 0, 7, 0.00,60.00,Friday
141,22207028.03927298
190,0.0
2,13, 1,13, 0, 8, 0.00,60.00,Friday
141,22218502.65932368
190,0.0
2,13, 1,13, 0, 9, 0.00,60.00,Friday
141,22010501.428363603
190,0.0
2,13, 1,13, 0,10, 0.00,60.00,Friday
141,22529481.130342398
190,0.0
2,13, 1,13, 0,11, 0.00,60.00,Friday
141,23110060.33058405
190,0.0
2,13, 1,13, 0,12, 0.00,60.00,Friday
141,23145777.080115303
190,0.0
2,13, 1,13, 0,13, 0.00,60.00,Friday
141,23212205.345631413
190,0.0
2,13, 1,13, 0,14, 0.00,60.00,Friday
141,23565790.246649053
190,0.0
2,13, 1,13, 0,15, 0.00,60.00,Friday
141,23753318.994257238
190,0.0
2,13, 1,13, 0,16, 0.00,60.00,Friday
141,23670185.205881152
190,0.0
2,13, 1,13, 0,17, 0.00,60.00,Friday
141,23533870.419073567
190,0.0
2,13, 1,13, 0,18, 0.00,60.00,Friday
141,23462083.246990744
190,0.0
2,13, 1,13, 0,19, 0.00,60.00,Friday
141,23791782.48664588
190,0.0
2,13, 1,13, 0,20, 0.00,60.00,Friday
141,24387496.17525508
190,0.0
2,13, 1,13, 0,21, 0.00,60.00,Friday
141,24919015.00777983
190,0.0
2,13, 1,13, 0,22, 0.00,60.00,Friday
141,25251493.10673149
190,0.0
2,13, 1,13, 0,23, 0.00,60.00,Friday
141,25116415.51766097
190,0.0
2,13, 1,13, 0,24, 0.00,60.00,Friday
141,26521852.924576595
190,0.0
2,14, 1,14, 0, 1, 0.00,60.00,Saturday
141,27486465.914240714
190,0.0
2,14, 1,14, 0, 2, 0.00,60.00,Saturday
141,27072514.214121558
190,0.0
2,14, 1,14, 0, 3, 0.00,60.00,Saturday
141,27147228.153582606
190,0.0
2,14, 1,14, 0, 4, 0.00,60.00,Saturday
141,26987268.469406556
190,0.0
2,14, 1,14, 0, 5, 0.00,60.00,Saturday
141,26937018.344117
190,0.0
2,14, 1,14, 0, 6, 0.00,60.00,Saturday
141,27960423.9729855
190,0.0
2,14, 1,14, 0, 7, 0.00,60.00,Saturday
141,28726072.307738006
190,0.0
2,14, 1,14, 0, 8, 0.00,60.00,Saturday
141,28461320.921628576
190,0.0
2,14, 1,14, 0, 9, 0.00,60.00,Saturday
141,28860188.61921522
190,0.0
2,14, 1,14, 0,10, 0.00,60.00,Saturday
141,29402357.355176687
190,0.0
2,14, 1,14, 0,11, 0.00,60.00,Saturday
141,29159512.255055677
190,0.0
2,14, 1,14, 0,12, 0.00,60.00,Saturday
141,28804495.48112162
190,0.0
2,14, 1,14, 0,13, 0.00,60.00,Saturday
141,28198290.715895504
190,0.0
2,14, 1,14, 0,14, 0.00,60.00,Saturday
141,26982756.784465972
190,0.0
2,14, 1,14, 0,15, 0.00,60.00,Saturday
141,26827488.724686347
190,0.0
2,14, 1,14, 0,16, 0.00,60.00,Saturday
141,27101008.349551283
190,0.0
2,14, 1,14, 0,17, 0.00,60.00,Saturday
141,27590105.54350385
190,0.0
2,14, 1,14, 0,18, 0.00,60.00,Saturday
141,28494470.571221404
190,0.0
2,14, 1,14, 0,19, 0.00,60.00,Saturday
141,28517208.42577089
190,0.0
2,14, 1,14, 0,20, 0.00,60.00,Saturday
141,28640587.5113731
190,0.0
2,14, 1,14, 0,21, 0.00,60.00,Saturday
141,28473955.373040397
190,0.0
2,14, 1,14, 0,22, 0.00,60.00,Saturday
141,28164430.352929126
190,0.0
2,14, 1,14, 0,23, 0.00,60.00,Saturday
141,27942278.340994872
190,0.0
2,14, 1,14, 0,24, 0.00,60.00,Saturday
141,27850785.924092297
190,0.0
2,15, 1,15, 0, 1, 0.00,60.00,Sunday
141,27310233.18538432
190,0.0
2,15, 1,15, 0, 2, 0.00,60.00,Sunday
141,26024918.902912214
190,0.0
2,15, 1,15, 0, 3, 0.00,60.00,Sunday
141,25405174.23533637
190,0.0
2,15, 1,15, 0, 4, 0.00,60.00,Sunday
141,24974611.68029916
190,0.0
2,15, 1,15, 0, 5, 0.00,60.00,Sunday
141,24174789.8385176
190,0.0
2,15, 1,15, 0, 6, 0.00,60.00,Sunday
141,23333979.773972653
190,0.0
2,15, 1,15, 0, 7, 0.00,60.00,Sunday
141,22506377.926281415
190,0.0
2,15, 1,15, 0, 8, 0.00,60.00,Sunday
141,21968132.86743343
190,0.0
2,15, 1,15, 0, 9, 0.00,60.00,Sunday
141,21567285.416454684
190,0.0
2,15, 1,15, 0,10, 0.00,60.00,Sunday
141,21534617.39675308
190,0.0
2,15, 1,15, 0,11, 0.00,60.00,Sunday
141,22015676.19002006
190,0.0
2,15, 1,15, 0,12, 0.00,60.00,Sunday
141,23211057.34857894
190,0.0
2,15, 1,15, 0,13, 0.00,60.00,Sunday
141,24102048.43763071
190,0.0
2,15, 1,15, 0,14, 0.00,60.00,Sunday
141,24487115.757247414
190,0.0
2,15, 1,15, 0,15, 0.00,60.00,Sunday
141,24655712.428060625
190,0.0
2,15, 1,15, 0,16, 0.00,60.00,Sunday
141,24395368.236486487
190,0.0
2,15, 1,15, 0,17, 0.00,60.00,Sunday
141,24221957.85881963
190,0.0
2,15, 1,15, 0,18, 0.00,60.00,Sunday
141,24316005.902509797
190,0.0
2,15, 1,15, 0,19, 0.00,60.00,Sunday
141,24528261.328173712
190,0.0
2,15, 1,15, 0,20, 0.00,60.00,Sunday
141,24794117.22270359
190,0.0
2,15, 1,15, 0,21, 0.00,60.00,Sunday
141,25340949.44085956
190,0.0
2,15, 1,15, 0,22, 0.00,60.00,Sunday
141,25588745.7711258
190,0.0
2,15, 1,15, 0,23, 0.00,60.00,Sunday
141,25622050.980979342
190,0.0
2,15, 1,15, 0,24, 0.00,60.00,Sunday
141,25758747.22885535
190,0.0
2,16, 1,16, 0, 1, 0.00,60.00,Monday
141,26249571.119518936
190,0.0
2,16, 1,16, 0, 2, 0.00,60.00,Monday
141,26707451.95433182
190,0.0
2,16, 1,16, 0, 3, 0.00,60.00,Monday
141,26961825.86171467
190,0.0
2,16, 1,16, 0, 4, 0.00,60.00,Monday
141,27145302.466874387
190,0.0
2,16, 1,16, 0, 5, 0.00,60.00,Monday
141,27422544.40504915
190,0.0
2,16, 1,16, 0, 6, 0.00,60.00,Monday
141,27659671.51969672
190,0.0
2,16, 1,16, 0, 7, 0.00,60.00,Monday
141,28153867.23406659
190,0.0
2,16, 1,16, 0, 8, 0.00,60.00,Monday
141,28617846.5837899
190,0.0
2,16, 1,16, 0, 9, 0.00,60.00,Monday
141,28811736.594623007
190,0.0
2,16, 1,16, 0,10, 0.00,60.00,Monday
141,28808333.236545093
190,0.0
2,16, 1,16, 0,11, 0.00,60.00,Monday
141,27749467.94845137
190,0.0
2,16, 1,16, 0,12, 0.00,60.00,Monday
141,26815017.198966958
190,0.0
2,16, 1,16, 0,13, 0.00,60.00,Monday
141,26090862.312372055
190,0.0
2,16, 1,16, 0,14, 0.00,60.00,Monday
141,25614717.30960698
190,0.0
2,16, 1,16, 0,15, 0.00,60.00,Monday
141,25571733.40785992
190,0.0
2,16, 1,16, 0,16, 0.00,60.00,Monday
141,25795686.777019963
190,0.0
2,16, 1,16, 0,17, 0.00,60.00,Monday
141,26326702.770683788
190,0.0
2,16, 1,16, 0,18, 0.00,60.00,Monday
141,27330564.67251224
190,0.0
2,16, 1,16, 0,19, 0.00,60.00,Monday
141,28383386.07886821
190,0.0
2,16, 1,16, 0,20, 0.00,60.00,Monday
141,28917527.744783375
190,0.0
2,16, 1,16, 0,21, 0.00,60.00,Monday
141,29338199.00304077
190,0.0
2,16, 1,16, 0,22, 0.00,60.00,Monday
141,29718780.6716289
190,0.0
2,16, 1,16, 0,23, 0.00,60.00,Monday
141,30293099.916101478
190,0.0
2,16, 1,16, 0,24, 0.00,60.00,Monday
141,30416803.678111356
190,0.0
2,17, 1,17, 0, 1, 0.00,60.00,Tuesday
141,30583402.807259515
190,0.0
2,17, 1,17, 0, 2, 0.00,60.00,Tuesday
141,31269260.292229213
190,0.0
2,17, 1,17, 0, 3, 0.00,60.00,Tuesday
141,31835705.423067033
190,0.0
2,17, 1,17, 0, 4, 0.00,60.00,Tuesday
141,32314054.81448887
190,0.0
2,17, 1,17, 0, 5, 0.00,60.00,Tuesday
141,32848390.066842303
190,0.0
2,17, 1,17, 0, 6, 0.00,60.00,Tuesday
141,33385020.685756482
190,0.0
2,17, 1,17, 0, 7, 0.00,60.00,Tuesday
141,33696295.32288237
190,0.0
2,17, 1,17, 0, 8, 0.00,60.00,Tuesday
141,33851207.09336093
190,0.0
2,17, 1,17, 0, 9, 0.00,60.00,Tuesday
141,33863107.02638261
190,0.0
2,17, 1,17, 0,10, 0.00,60.00,Tuesday
141,32636022.69744775
190,0.0
2,17, 1,17, 0,11, 0.00,60.00,Tuesday
141,30838902.661749247
190,0.0
2,17, 1,17, 0,12, 0.00,60.00,Tuesday
141,29291131.2975449
190,0.0
2,17, 1,17, 0,13, 0.00,60.00,Tuesday
141,28393052.598073434
190,0.0
2,17, 1,17, 0,14, 0.00,60.00,Tuesday
141,28209267.241125327
190,0.0
2,17, 1,17, 0,15, 0.00,60.00,Tuesday
141,28525952.51740729
190,0.0
2,17, 1,17, 0,16, 0.00,60.00,Tuesday
141,29429367.87936387
190,0.0
2,17, 1,17, 0,17, 0.00,60.00,Tuesday
141,30161636.58689776
190,0.0
2,17, 1,17, 0,18, 0.00,60.00,Tuesday
141,30281073.24703756
190,0.0
2,17, 1,17, 0,19, 0.00,60.00,Tuesday
141,30262669.401555788
190,0.0
2,17, 1,17, 0,20, 0.00,60.00,Tuesday
141,30454543.58779763
190,0.0
2,17, 1,17, 0,21, 0.00,60.00,Tuesday
141,30749294.886050645
190,0.0
2,17, 1,17, 0,22, 0.00,60.00,Tuesday
141,30814179.016577825
190,0.0
2,17, 1,17, 0,23, 0.00,60.00,Tuesday
141,30863486.31224748
190,0.0
2,17, 1,17, 0,24, 0.00,60.00,Tuesday
141,31240167.825816818
190,0.0
2,18, 1,18, 0, 1, 0.00,60.00,Wednesday
141,31475054.804417457
190,0.0
2,18, 1,18, 0, 2, 0.00,60.00,Wednesday
141,31639149.993287228
190,0.0
2,18, 1,18, 0, 3, 0.00,60.00,Wednesday
141,31681477.050019633
190,0.0
2,18, 1,18, 0, 4, 0.00,60.00,Wednesday
141,31637053.928995315
190,0.0
2,18, 1,18, 0, 5, 0.00,60.00,Wednesday
141,31646167.16399293
190,0.0
2,18, 1,18, 0, 6, 0.00,60.00,Wednesday
141,31727919.594509955
190,0.0
2,18, 1,18, 0, 7, 0.00,60.00,Wednesday
141,32309562.12446953
190,0.0
2,18, 1,18, 0, 8, 0.00,60.00,Wednesday
141,32470331.34690794
190,0.0
2,18, 1,18, 0, 9, 0.00,60.00,Wednesday
141,32549176.898142587
190,0.0
2,18, 1,18, 0,10, 0.00,60.00,Wednesday
141,32496647.054860123
190,0.0
2,18, 1,18, 0,11, 0.00,60.00,Wednesday
141,31902479.079371534
190,0.0
2,18, 1,18, 0,12, 0.00,60.00,Wednesday
141,31447761.7893513
190,0.0
2,18, 1,18, 0,13, 0.00,60.00,Wednesday
141,31647877.519929677
190,0.0
2,18, 1,18, 0,14, 0.00,60.00,Wednesday
141,32090975.91904451
190,0.0
2,18, 1,18, 0,15, 0.00,60.00,Wednesday
141,32335168.97610868
190,0.0
2,18, 1,18, 0,16, 0.00,60.00,Wednesday
141,32852564.781069502
190,0.0
2,18, 1,18, 0,17, 0.00,60.00,Wednesday
141,33118189.26618778
190,0.0
2,18, 1,18, 0,18, 0.00,60.00,Wednesday
141,32934831.31954791
190,0.0
2,18, 1,18, 0,19, 0.00,60.00,Wednesday
141,32850257.414926477
190,0.0
2,18, 1,18, 0,20, 0.00,60.00,Wednesday
141,32948002.32297522
190,0.0
2,18, 1,18, 0,21, 0.00,60.00,Wednesday
141,33019096.262325525
190,0.0
2,18, 1,18, 0,22, 0.00,60.00,Wednesday
141,33189378.35966778
190,0.0
2,18, 1,18, 0,23, 0.00,60.00,Wednesday
141,33314207.456125643
190,0.0
2,18, 1,18, 0,24, 0.00,60.00,Wednesday
141,33479427.683925968
190,0.0
2,19, 1,19, 0, 1, 0.00,60.00,Thursday
141,33299963.54644504