Program Version,EnergyPlus, Version 24.2.0-94a887817b, YMD=2025.04.24 13:20
1,5,Environment Title[],Latitude[deg],Longitude[deg],Time Zone[],Elevation[m]
2,8,Day of Simulation[],Month[],Day of Month[],DST Indicator[1=yes 0=no],Hour[],StartMinute[],EndMinute[],DayType
3,5,Cumulative Day of Simulation[],Month[],Day of Month[],DST Indicator[1=yes 0=no],DayType  ! When Daily Report Variables Requested
4,2,Cumulative Days of Simulation[],Month[]  ! When Monthly Report Variables Requested
5,1,Cumulative Days of Simulation[] ! When Run Period Report Variables Requested
6,1,Calendar Year of Simulation[] ! When Annual Report Variables Requested
141,1,ZONE_0599100000232174 IDEAL LOADS AIR SYSTEM,Zone Ideal Loads Supply Air Total Heating Energy [J] !Hourly
190,1,ZONE_0599100000232174 IDEAL LOADS AIR SYSTEM,Zone Ideal Loads Supply Air Total Cooling Energy [J] !Hourly
End of Data Dictionary
1,RUN PERIOD 1,  51.96,   4.45,   1.00,  -4.50
2,1, 1, 1, 0, 1, 0.00,60.00,Sunday
141,87501554.15330431
190,0.0
2,1, 1, 1, 0, 2, 0.00,60.00,Sunday
141,90436408.78110577
190,0.0
2,1, 1, 1, 0, 3, 0.00,60.00,Sunday
141,90460376.20958318
190,0.0
2,1, 1, 1, 0, 4, 0.00,60.00,Sunday
141,92655310.12610121
190,0.0
2,1, 1, 1, 0, 5, 0.00,60.00,Sunday
141,94212716.12535734
190,0.0
2,1, 1, 1, 0, 6, 0.00,60.00,Sunday
141,94525208.8709105
190,0.0
2,1, 1, 1, 0, 7, 0.00,60.00,Sunday
141,94971374.10720436
190,0.0
2,1, 1, 1, 0, 8, 0.00,60.00,Sunday
141,94996997.36402278
190,0.0
2,1, 1, 1, 0, 9, 0.00,60.00,Sunday
141,95071269.20711264
190,0.0
2,1, 1, 1, 0,10, 0.00,60.00,Sunday
141,94645939.76321447
190,0.0
2,1, 1, 1, 0,11, 0.00,60.00,Sunday
141,93137960.02299155
190,0.0
2,1, 1, 1, 0,12, 0.00,60.00,Sunday
141,90483798.49812044
190,0.0
2,1, 1, 1, 0,13, 0.00,60.00,Sunday
141,89157334.19840357
190,0.0
2,1, 1, 1, 0,14, 0.00,60.00,Sunday
141,87106261.78221624
190,0.0
2,1, 1, 1, 0,15, 0.00,60.00,Sunday
141,85446575.2072438
190,0.0
2,1, 1, 1, 0,16, 0.00,60.00,Sunday
141,86305148.07631269
190,0.0
2,1, 1, 1, 0,17, 0.00,60.00,Sunday
141,87451209.87167184
190,0.0
2,1, 1, 1, 0,18, 0.00,60.00,Sunday
141,87504385.81250733
190,0.0
2,1, 1, 1, 0,19, 0.00,60.00,Sunday
141,87596066.7947183
190,0.0
2,1, 1, 1, 0,20, 0.00,60.00,Sunday
141,87261692.51777282
190,0.0
2,1, 1, 1, 0,21, 0.00,60.00,Sunday
141,86854872.95648994
190,0.0
2,1, 1, 1, 0,22, 0.00,60.00,Sunday
141,86991407.34303743
190,0.0
2,1, 1, 1, 0,23, 0.00,60.00,Sunday
141,85008704.29074405
190,0.0
2,1, 1, 1, 0,24, 0.00,60.00,Sunday
141,83578346.16032763
190,0.0
2,2, 1, 2, 0, 1, 0.00,60.00,Monday
141,83914190.1405055
190,0.0
2,2, 1, 2, 0, 2, 0.00,60.00,Monday
141,81962623.75461222
190,0.0
2,2, 1, 2, 0, 3, 0.00,60.00,Monday
141,80461318.37150097
190,0.0
2,2, 1, 2, 0, 4, 0.00,60.00,Monday
141,78912293.90756086
190,0.0
2,2, 1, 2, 0, 5, 0.00,60.00,Monday
141,75460921.85033727
190,0.0
2,2, 1, 2, 0, 6, 0.00,60.00,Monday
141,73762350.08783902
190,0.0
2,2, 1, 2, 0, 7, 0.00,60.00,Monday
141,71079803.32505208
190,0.0
2,2, 1, 2, 0, 8, 0.00,60.00,Monday
141,67778055.96597238
190,0.0
2,2, 1, 2, 0, 9, 0.00,60.00,Monday
141,68514179.1517027
190,0.0
2,2, 1, 2, 0,10, 0.00,60.00,Monday
141,70564157.47625546
190,0.0
2,2, 1, 2, 0,11, 0.00,60.00,Monday
141,71823656.80862415
190,0.0
2,2, 1, 2, 0,12, 0.00,60.00,Monday
141,70155352.52453499
190,0.0
2,2, 1, 2, 0,13, 0.00,60.00,Monday
141,69355777.36879483
190,0.0
2,2, 1, 2, 0,14, 0.00,60.00,Monday
141,70861850.61447226
190,0.0
2,2, 1, 2, 0,15, 0.00,60.00,Monday
141,71544890.04711765
190,0.0
2,2, 1, 2, 0,16, 0.00,60.00,Monday
141,73121592.38542059
190,0.0
2,2, 1, 2, 0,17, 0.00,60.00,Monday
141,74721641.99024263
190,0.0
2,2, 1, 2, 0,18, 0.00,60.00,Monday
141,75151001.84624372
190,0.0
2,2, 1, 2, 0,19, 0.00,60.00,Monday
141,76994473.1258741
190,0.0
2,2, 1, 2, 0,20, 0.00,60.00,Monday
141,78736284.21211687
190,0.0
2,2, 1, 2, 0,21, 0.00,60.00,Monday
141,79238492.40369569
190,0.0
2,2, 1, 2, 0,22, 0.00,60.00,Monday
141,79471557.21011658
190,0.0
2,2, 1, 2, 0,23, 0.00,60.00,Monday
141,79831522.95816833
190,0.0
2,2, 1, 2, 0,24, 0.00,60.00,Monday
141,80232299.3494617
190,0.0
2,3, 1, 3, 0, 1, 0.00,60.00,Tuesday
141,80674901.35004799
190,0.0
2,3, 1, 3, 0, 2, 0.00,60.00,Tuesday
141,80959112.56439945
190,0.0
2,3, 1, 3, 0, 3, 0.00,60.00,Tuesday
141,81163459.89178662
190,0.0
2,3, 1, 3, 0, 4, 0.00,60.00,Tuesday
141,81614687.22843286
190,0.0
2,3, 1, 3, 0, 5, 0.00,60.00,Tuesday
141,83646000.49643655
190,0.0
2,3, 1, 3, 0, 6, 0.00,60.00,Tuesday
141,84923045.19012457
190,0.0
2,3, 1, 3, 0, 7, 0.00,60.00,Tuesday
141,85496334.89800173
190,0.0
2,3, 1, 3, 0, 8, 0.00,60.00,Tuesday
141,85270402.4181085
190,0.0
2,3, 1, 3, 0, 9, 0.00,60.00,Tuesday
141,86753319.07323068
190,0.0
2,3, 1, 3, 0,10, 0.00,60.00,Tuesday
141,87420134.24789622
190,0.0
2,3, 1, 3, 0,11, 0.00,60.00,Tuesday
141,87525585.96163456
190,0.0
2,3, 1, 3, 0,12, 0.00,60.00,Tuesday
141,87922325.83336684
190,0.0
2,3, 1, 3, 0,13, 0.00,60.00,Tuesday
141,90285321.22422424
190,0.0
2,3, 1, 3, 0,14, 0.00,60.00,Tuesday
141,91614811.9150025
190,0.0
2,3, 1, 3, 0,15, 0.00,60.00,Tuesday
141,91346621.57132813
190,0.0
2,3, 1, 3, 0,16, 0.00,60.00,Tuesday
141,91084980.11972067
190,0.0
2,3, 1, 3, 0,17, 0.00,60.00,Tuesday
141,91137904.22693671
190,0.0
2,3, 1, 3, 0,18, 0.00,60.00,Tuesday
141,91281524.45625532
190,0.0
2,3, 1, 3, 0,19, 0.00,60.00,Tuesday
141,90828171.6624732
190,0.0
2,3, 1, 3, 0,20, 0.00,60.00,Tuesday
141,88873585.85189813
190,0.0
2,3, 1, 3, 0,21, 0.00,60.00,Tuesday
141,83747131.53695072
190,0.0
2,3, 1, 3, 0,22, 0.00,60.00,Tuesday
141,81063550.68403748
190,0.0
2,3, 1, 3, 0,23, 0.00,60.00,Tuesday
141,83130691.40551767
190,0.0
2,3, 1, 3, 0,24, 0.00,60.00,Tuesday
141,86583825.28141293
190,0.0
2,4, 1, 4, 0, 1, 0.00,60.00,Wednesday
141,88355176.09360099
190,0.0
2,4, 1, 4, 0, 2, 0.00,60.00,Wednesday
141,88235053.42833415
190,0.0
2,4, 1, 4, 0, 3, 0.00,60.00,Wednesday
141,87932362.00370423
190,0.0
2,4, 1, 4, 0, 4, 0.00,60.00,Wednesday
141,88712478.41689202
190,0.0
2,4, 1, 4, 0, 5, 0.00,60.00,Wednesday
141,91112191.5341755
190,0.0
2,4, 1, 4, 0, 6, 0.00,60.00,Wednesday
141,90681454.11844298
190,0.0
2,4, 1, 4, 0, 7, 0.00,60.00,Wednesday
141,90672549.48764452
190,0.0
2,4, 1, 4, 0, 8, 0.00,60.00,Wednesday
141,91615234.07506414
190,0.0
2,4, 1, 4, 0, 9, 0.00,60.00,Wednesday
141,92285680.35132743
190,0.0
2,4, 1, 4, 0,10, 0.00,60.00,Wednesday
141,92822109.05377245
190,0.0
2,4, 1, 4, 0,11, 0.00,60.00,Wednesday
141,88877393.3229171
190,0.0
2,4, 1, 4, 0,12, 0.00,60.00,Wednesday
141,82234935.84447661
190,0.0
2,4, 1, 4, 0,13, 0.00,60.00,Wednesday
141,80575034.19507645
190,0.0
2,4, 1, 4, 0,14, 0.00,60.00,Wednesday
141,80451060.53010944
190,0.0
2,4, 1, 4, 0,15, 0.00,60.00,Wednesday
141,79833884.7470934
190,0.0
2,4, 1, 4, 0,16, 0.00,60.00,Wednesday
141,82552598.85400088
190,0.0
2,4, 1, 4, 0,17, 0.00,60.00,Wednesday
141,87411819.9567533
190,0.0
2,4, 1, 4, 0,18, 0.00,60.00,Wednesday
141,91586730.14187008
190,0.0
2,4, 1, 4, 0,19, 0.00,60.00,Wednesday
141,95857112.92759645
190,0.0
2,4, 1, 4, 0,20, 0.00,60.00,Wednesday
141,98115230.61006798
190,0.0
2,4, 1, 4, 0,21, 0.00,60.00,Wednesday
141,99218164.40738408
190,0.0
2,4, 1, 4, 0,22, 0.00,60.00,Wednesday
141,101515416.27631682
190,0.0
2,4, 1, 4, 0,23, 0.00,60.00,Wednesday
141,100856954.0401433
190,0.0
2,4, 1, 4, 0,24, 0.00,60.00,Wednesday
141,99640232.67914729
190,0.0
2,5, 1, 5, 0, 1, 0.00,60.00,Thursday
141,100589211.18123308
190,0.0
2,5, 1, 5, 0, 2, 0.00,60.00,Thursday
141,99895535.59753367
190,0.0
2,5, 1, 5, 0, 3, 0.00,60.00,Thursday
141,99200231.22499424
190,0.0
2,5, 1, 5, 0, 4, 0.00,60.00,Thursday
141,99690835.9541318
190,0.0
2,5, 1, 5, 0, 5, 0.00,60.00,Thursday
141,98713943.53250869
190,0.0
2,5, 1, 5, 0, 6, 0.00,60.00,Thursday
141,98348483.8814453
190,0.0
2,5, 1, 5, 0, 7, 0.00,60.00,Thursday
141,99202185.44025585
190,0.0
2,5, 1, 5, 0, 8, 0.00,60.00,Thursday
141,99897322.1360988
190,0.0
2,5, 1, 5, 0, 9, 0.00,60.00,Thursday
141,100091889.18075095
190,0.0
2,5, 1, 5, 0,10, 0.00,60.00,Thursday
141,101304018.46295953
190,0.0
2,5, 1, 5, 0,11, 0.00,60.00,Thursday
141,100835512.37026149
190,0.0
2,5, 1, 5, 0,12, 0.00,60.00,Thursday
141,97763070.0446769
190,0.0
2,5, 1, 5, 0,13, 0.00,60.00,Thursday
141,96464339.96087855
190,0.0
2,5, 1, 5, 0,14, 0.00,60.00,Thursday
141,93963862.29768823
190,0.0
2,5, 1, 5, 0,15, 0.00,60.00,Thursday
141,91770965.29370447
190,0.0
2,5, 1, 5, 0,16, 0.00,60.00,Thursday
141,92504711.5514467
190,0.0
2,5, 1, 5, 0,17, 0.00,60.00,Thursday
141,91536895.88320664
190,0.0
2,5, 1, 5, 0,18, 0.00,60.00,Thursday
141,90049349.22453289
190,0.0
2,5, 1, 5, 0,19, 0.00,60.00,Thursday
141,90038743.5002349
190,0.0
2,5, 1, 5, 0,20, 0.00,60.00,Thursday
141,89509927.5281245
190,0.0
2,5, 1, 5, 0,21, 0.00,60.00,Thursday
141,88853127.84984635
190,0.0
2,5, 1, 5, 0,22, 0.00,60.00,Thursday
141,88629711.11131404
190,0.0
2,5, 1, 5, 0,23, 0.00,60.00,Thursday
141,88838003.961787
190,0.0
2,5, 1, 5, 0,24, 0.00,60.00,Thursday
141,89127434.20976706
190,0.0
2,6, 1, 6, 0, 1, 0.00,60.00,Friday
141,89284560.45409101
190,0.0
2,6, 1, 6, 0, 2, 0.00,60.00,Friday
141,89447513.05384767
190,0.0
2,6, 1, 6, 0, 3, 0.00,60.00,Friday
141,91253129.9067457
190,0.0
2,6, 1, 6, 0, 4, 0.00,60.00,Friday
141,93015750.14133771
190,0.0
2,6, 1, 6, 0, 5, 0.00,60.00,Friday
141,93909872.33245462
190,0.0
2,6, 1, 6, 0, 6, 0.00,60.00,Friday
141,95047687.66067356
190,0.0
2,6, 1, 6, 0, 7, 0.00,60.00,Friday
141,96791785.87364207
190,0.0
2,6, 1, 6, 0, 8, 0.00,60.00,Friday
141,98486028.55836248
190,0.0
2,6, 1, 6, 0, 9, 0.00,60.00,Friday
141,100569809.77288847
190,0.0
2,6, 1, 6, 0,10, 0.00,60.00,Friday
141,101898706.4131902
190,0.0
2,6, 1, 6, 0,11, 0.00,60.00,Friday
141,100769124.2954787
190,0.0
2,6, 1, 6, 0,12, 0.00,60.00,Friday
141,98911219.00601819
190,0.0
2,6, 1, 6, 0,13, 0.00,60.00,Friday
141,98089656.51102357
190,0.0
2,6, 1, 6, 0,14, 0.00,60.00,Friday
141,97735152.84448838
190,0.0
2,6, 1, 6, 0,15, 0.00,60.00,Friday
141,97081543.32358742
190,0.0
2,6, 1, 6, 0,16, 0.00,60.00,Friday
141,95578337.09537157
190,0.0
2,6, 1, 6, 0,17, 0.00,60.00,Friday
141,93992170.9206418
190,0.0
2,6, 1, 6, 0,18, 0.00,60.00,Friday
141,93143971.05567837
190,0.0
2,6, 1, 6, 0,19, 0.00,60.00,Friday
141,92266218.27508287
190,0.0
2,6, 1, 6, 0,20, 0.00,60.00,Friday
141,90427358.0779689
190,0.0
2,6, 1, 6, 0,21, 0.00,60.00,Friday
141,85980266.20025118
190,0.0
2,6, 1, 6, 0,22, 0.00,60.00,Friday
141,80708793.74717495
190,0.0
2,6, 1, 6, 0,23, 0.00,60.00,Friday
141,78455760.89416912
190,0.0
2,6, 1, 6, 0,24, 0.00,60.00,Friday
141,79127416.87661362
190,0.0
2,7, 1, 7, 0, 1, 0.00,60.00,Saturday
141,83524432.21060918
190,0.0
2,7, 1, 7, 0, 2, 0.00,60.00,Saturday
141,87849924.0396264
190,0.0
2,7, 1, 7, 0, 3, 0.00,60.00,Saturday
141,87206423.65060952
190,0.0
2,7, 1, 7, 0, 4, 0.00,60.00,Saturday
141,87527760.38856357
190,0.0
2,7, 1, 7, 0, 5, 0.00,60.00,Saturday
141,90473185.80725643
190,0.0
2,7, 1, 7, 0, 6, 0.00,60.00,Saturday
141,92789130.44701272
190,0.0
2,7, 1, 7, 0, 7, 0.00,60.00,Saturday
141,94163340.13434534
190,0.0
2,7, 1, 7, 0, 8, 0.00,60.00,Saturday
141,94876762.70305058
190,0.0
2,7, 1, 7, 0, 9, 0.00,60.00,Saturday
141,93303971.39083418
190,0.0
2,7, 1, 7, 0,10, 0.00,60.00,Saturday
141,91946500.94690815
190,0.0
2,7, 1, 7, 0,11, 0.00,60.00,Saturday
141,87746063.4972004
190,0.0
2,7, 1, 7, 0,12, 0.00,60.00,Saturday
141,83460265.31769745
190,0.0
2,7, 1, 7, 0,13, 0.00,60.00,Saturday
141,80192208.71545035
190,0.0
2,7, 1, 7, 0,14, 0.00,60.00,Saturday
141,78243221.0699177
190,0.0
2,7, 1, 7, 0,15, 0.00,60.00,Saturday
141,78367648.65771617
190,0.0
2,7, 1, 7, 0,16, 0.00,60.00,Saturday
141,79109746.62548375
190,0.0
2,7, 1, 7, 0,17, 0.00,60.00,Saturday
141,79569315.85496055
190,0.0
2,7, 1, 7, 0,18, 0.00,60.00,Saturday
141,81004946.33926924
190,0.0
2,7, 1, 7, 0,19, 0.00,60.00,Saturday
141,82446996.8164413
190,0.0
2,7, 1, 7, 0,20, 0.00,60.00,Saturday
141,83992224.64530396
190,0.0
2,7, 1, 7, 0,21, 0.00,60.00,Saturday
141,85150093.45807868
190,0.0
2,7, 1, 7, 0,22, 0.00,60.00,Saturday
141,85126806.37611362
190,0.0
2,7, 1, 7, 0,23, 0.00,60.00,Saturday
141,85407562.8667567
190,0.0
2,7, 1, 7, 0,24, 0.00,60.00,Saturday
141,85427470.16313748
190,0.0
2,8, 1, 8, 0, 1, 0.00,60.00,Sunday
141,84414808.45337482
190,0.0
2,8, 1, 8, 0, 2, 0.00,60.00,Sunday
141,83301198.78635864
190,0.0
2,8, 1, 8, 0, 3, 0.00,60.00,Sunday
141,82396912.91703942
190,0.0
2,8, 1, 8, 0, 4, 0.00,60.00,Sunday
141,80906366.14952165
190,0.0
2,8, 1, 8, 0, 5, 0.00,60.00,Sunday
141,78932762.1473311
190,0.0
2,8, 1, 8, 0, 6, 0.00,60.00,Sunday
141,77454062.60446635
190,0.0
2,8, 1, 8, 0, 7, 0.00,60.00,Sunday
141,76287788.91840428
190,0.0
2,8, 1, 8, 0, 8, 0.00,60.00,Sunday
141,75208757.71750629
190,0.0
2,8, 1, 8, 0, 9, 0.00,60.00,Sunday
141,73979585.52708615
190,0.0
2,8, 1, 8, 0,10, 0.00,60.00,Sunday
141,73504874.29117939
190,0.0
2,8, 1, 8, 0,11, 0.00,60.00,Sunday
141,73057714.68342808
190,0.0
2,8, 1, 8, 0,12, 0.00,60.00,Sunday
141,73111211.17910466
190,0.0
2,8, 1, 8, 0,13, 0.00,60.00,Sunday
141,72648738.36181176
190,0.0
2,8, 1, 8, 0,14, 0.00,60.00,Sunday
141,72691689.26622687
190,0.0
2,8, 1, 8, 0,15, 0.00,60.00,Sunday
141,75136981.33790019
190,0.0
2,8, 1, 8, 0,16, 0.00,60.00,Sunday
141,76874357.01549573
190,0.0
2,8, 1, 8, 0,17, 0.00,60.00,Sunday
141,76837789.84171174
190,0.0
2,8, 1, 8, 0,18, 0.00,60.00,Sunday
141,77636043.19016269
190,0.0
2,8, 1, 8, 0,19, 0.00,60.00,Sunday
141,77202111.91353445
190,0.0
2,8, 1, 8, 0,20, 0.00,60.00,Sunday
141,75668924.18381599
190,0.0
2,8, 1, 8, 0,21, 0.00,60.00,Sunday
141,74616850.24533948
190,0.0
2,8, 1, 8, 0,22, 0.00,60.00,Sunday
141,75079775.38227533
190,0.0
2,8, 1, 8, 0,23, 0.00,60.00,Sunday
141,75531284.83195405
190,0.0
2,8, 1, 8, 0,24, 0.00,60.00,Sunday
141,76627833.8914218
190,0.0
2,9, 1, 9, 0, 1, 0.00,60.00,Monday
141,76947707.91564651
190,0.0
2,9, 1, 9, 0, 2, 0.00,60.00,Monday
141,77199012.99609078
190,0.0
2,9, 1, 9, 0, 3, 0.00,60.00,Monday
141,77115534.48173097
190,0.0
2,9, 1, 9, 0, 4, 0.00,60.00,Monday
141,76672921.48192695
190,0.0
2,9, 1, 9, 0, 5, 0.00,60.00,Monday
141,75474313.79829751
190,0.0
2,9, 1, 9, 0, 6, 0.00,60.00,Monday
141,74220011.73807737
190,0.0
2,9, 1, 9, 0, 7, 0.00,60.00,Monday
141,73291747.26704764
190,0.0
2,9, 1, 9, 0, 8, 0.00,60.00,Monday
141,72757262.3789651
190,0.0
2,9, 1, 9, 0, 9, 0.00,60.00,Monday
141,71264539.72721152
190,0.0
2,9, 1, 9, 0,10, 0.00,60.00,Monday
141,67684804.71845253
190,0.0
2,9, 1, 9, 0,11, 0.00,60.00,Monday
141,64616490.2785191
190,0.0
2,9, 1, 9, 0,12, 0.00,60.00,Monday
141,62863447.710484244
190,0.0
2,9, 1, 9, 0,13, 0.00,60.00,Monday
141,61350676.286433145
190,0.0
2,9, 1, 9, 0,14, 0.00,60.00,Monday
141,60142591.940902054
190,0.0
2,9, 1, 9, 0,15, 0.00,60.00,Monday
141,59534742.14991319
190,0.0
2,9, 1, 9, 0,16, 0.00,60.00,Monday
141,59953100.67572662
190,0.0
2,9, 1, 9, 0,17, 0.00,60.00,Monday
141,62058514.88742927
190,0.0
2,9, 1, 9, 0,18, 0.00,60.00,Monday
141,64071645.35089212
190,0.0
2,9, 1, 9, 0,19, 0.00,60.00,Monday
141,63714426.41745489
190,0.0
2,9, 1, 9, 0,20, 0.00,60.00,Monday
141,60449023.74045268
190,0.0
2,9, 1, 9, 0,21, 0.00,60.00,Monday
141,57165322.52514723
190,0.0
2,9, 1, 9, 0,22, 0.00,60.00,Monday
141,55085808.97741339
190,0.0
2,9, 1, 9, 0,23, 0.00,60.00,Monday
141,54530593.060446054
190,0.0
2,9, 1, 9, 0,24, 0.00,60.00,Monday
141,54468429.084718585
190,0.0
2,10, 1,10, 0, 1, 0.00,60.00,Tuesday
141,55018687.50573201
190,0.0
2,10, 1,10, 0, 2, 0.00,60.00,Tuesday
141,55262474.00647412
190,0.0
2,10, 1,10, 0, 3, 0.00,60.00,Tuesday
141,55015351.17231138
190,0.0
2,10, 1,10, 0, 4, 0.00,60.00,Tuesday
141,55648209.32829411
190,0.0
2,10, 1,10, 0, 5, 0.00,60.00,Tuesday
141,55689917.86319134
190,0.0
2,10, 1,10, 0, 6, 0.00,60.00,Tuesday
141,55524803.79195326
190,0.0
2,10, 1,10, 0, 7, 0.00,60.00,Tuesday
141,55424549.452519834
190,0.0
2,10, 1,10, 0, 8, 0.00,60.00,Tuesday
141,54898395.65394271
190,0.0
2,10, 1,10, 0, 9, 0.00,60.00,Tuesday
141,54263321.49835189
190,0.0
2,10, 1,10, 0,10, 0.00,60.00,Tuesday
141,53482944.83282143
190,0.0
2,10, 1,10, 0,11, 0.00,60.00,Tuesday
141,52418705.85111131
190,0.0
2,10, 1,10, 0,12, 0.00,60.00,Tuesday
141,51228479.89378222
190,0.0
2,10, 1,10, 0,13, 0.00,60.00,Tuesday
141,50977423.21273737
190,0.0
2,10, 1,10, 0,14, 0.00,60.00,Tuesday
141,55004548.02579498
190,0.0
2,10, 1,10, 0,15, 0.00,60.00,Tuesday
141,58282550.491385475
190,0.0
2,10, 1,10, 0,16, 0.00,60.00,Tuesday
141,60358823.275502264
190,0.0
2,10, 1,10, 0,17, 0.00,60.00,Tuesday
141,62596113.65183316
190,0.0
2,10, 1,10, 0,18, 0.00,60.00,Tuesday
141,65563403.87321947
190,0.0
2,10, 1,10, 0,19, 0.00,60.00,Tuesday
141,67392876.56611398
190,0.0
2,10, 1,10, 0,20, 0.00,60.00,Tuesday
141,69030570.84525886
190,0.0
2,10, 1,10, 0,21, 0.00,60.00,Tuesday
141,71461315.46671338
190,0.0
2,10, 1,10, 0,22, 0.00,60.00,Tuesday
141,73276010.80023026
190,0.0
2,10, 1,10, 0,23, 0.00,60.00,Tuesday
141,73579223.53594653
190,0.0
2,10, 1,10, 0,24, 0.00,60.00,Tuesday
141,75655211.35581566
190,0.0
2,11, 1,11, 0, 1, 0.00,60.00,Wednesday
141,76803201.36737843
190,0.0
2,11, 1,11, 0, 2, 0.00,60.00,Wednesday
141,77930095.31785093
190,0.0
2,11, 1,11, 0, 3, 0.00,60.00,Wednesday
141,79443456.09954664
190,0.0
2,11, 1,11, 0, 4, 0.00,60.00,Wednesday
141,79369926.93107471
190,0.0
2,11, 1,11, 0, 5, 0.00,60.00,Wednesday
141,79399238.46357507
190,0.0
2,11, 1,11, 0, 6, 0.00,60.00,Wednesday
141,79675247.26312622
190,0.0
2,11, 1,11, 0, 7, 0.00,60.00,Wednesday
141,80302226.2838009
190,0.0
2,11, 1,11, 0, 8, 0.00,60.00,Wednesday
141,80879004.34366296
190,0.0
2,11, 1,11, 0, 9, 0.00,60.00,Wednesday
141,80928760.81209463
190,0.0
2,11, 1,11, 0,10, 0.00,60.00,Wednesday
141,80612065.79961826
190,0.0
2,11, 1,11, 0,11, 0.00,60.00,Wednesday
141,79909267.27067406
190,0.0
2,11, 1,11, 0,12, 0.00,60.00,Wednesday
141,78589693.73476683
190,0.0
2,11, 1,11, 0,13, 0.00,60.00,Wednesday
141,77421142.74475843
190,0.0
2,11, 1,11, 0,14, 0.00,60.00,Wednesday
141,76668363.33177614
190,0.0
2,11, 1,11, 0,15, 0.00,60.00,Wednesday
141,76083363.22082928
190,0.0
2,11, 1,11, 0,16, 0.00,60.00,Wednesday
141,75549048.12846348
190,0.0
2,11, 1,11, 0,17, 0.00,60.00,Wednesday
141,74216053.79511492
190,0.0
2,11, 1,11, 0,18, 0.00,60.00,Wednesday
141,72961158.28692277
190,0.0
2,11, 1,11, 0,19, 0.00,60.00,Wednesday
141,72023252.97481677
190,0.0
2,11, 1,11, 0,20, 0.00,60.00,Wednesday
141,71637688.69061683
190,0.0
2,11, 1,11, 0,21, 0.00,60.00,Wednesday
141,71386403.9643772
190,0.0
2,11, 1,11, 0,22, 0.00,60.00,Wednesday
141,69759596.99303645
190,0.0
2,11, 1,11, 0,23, 0.00,60.00,Wednesday
141,68518260.63404435
190,0.0
2,11, 1,11, 0,24, 0.00,60.00,Wednesday
141,68526923.3201806
190,0.0
2,12, 1,12, 0, 1, 0.00,60.00,Thursday
141,69000488.19570845
190,0.0
2,12, 1,12, 0, 2, 0.00,60.00,Thursday
141,69004884.20107117
190,0.0
2,12, 1,12, 0, 3, 0.00,60.00,Thursday
141,68593500.88873175
190,0.0
2,12, 1,12, 0, 4, 0.00,60.00,Thursday
141,68587399.8155217
190,0.0
2,12, 1,12, 0, 5, 0.00,60.00,Thursday
141,69057389.09703976
190,0.0
2,12, 1,12, 0, 6, 0.00,60.00,Thursday
141,70234780.69186485
190,0.0
2,12, 1,12, 0, 7, 0.00,60.00,Thursday
141,70857971.22659788
190,0.0
2,12, 1,12, 0, 8, 0.00,60.00,Thursday
141,70990068.18209372
190,0.0
2,12, 1,12, 0, 9, 0.00,60.00,Thursday
141,70112798.35580741
190,0.0
2,12, 1,12, 0,10, 0.00,60.00,Thursday
141,68237017.67803916
190,0.0
2,12, 1,12, 0,11, 0.00,60.00,Thursday
141,66806303.348000154
190,0.0
2,12, 1,12, 0,12, 0.00,60.00,Thursday
141,65989874.48379178
190,0.0
2,12, 1,12, 0,13, 0.00,60.00,Thursday
141,64953380.39382789
190,0.0
2,12, 1,12, 0,14, 0.00,60.00,Thursday
141,63868424.27287312
190,0.0
2,12, 1,12, 0,15, 0.00,60.00,Thursday
141,63903814.76178371
190,0.0
2,12, 1,12, 0,16, 0.00,60.00,Thursday
141,64436723.5574099
190,0.0
2,12, 1,12, 0,17, 0.00,60.00,Thursday
141,66735214.34760019
190,0.0
2,12, 1,12, 0,18, 0.00,60.00,Thursday
141,68084956.0500936
190,0.0
2,12, 1,12, 0,19, 0.00,60.00,Thursday
141,67583154.81831378
190,0.0
2,12, 1,12, 0,20, 0.00,60.00,Thursday
141,66364919.375330314
190,0.0
2,12, 1,12, 0,21, 0.00,60.00,Thursday
141,65868035.72458492
190,0.0
2,12, 1,12, 0,22, 0.00,60.00,Thursday
141,65003227.29647897
190,0.0
2,12, 1,12, 0,23, 0.00,60.00,Thursday
141,64612077.60919507
190,0.0
2,12, 1,12, 0,24, 0.00,60.00,Thursday
141,64548799.47217921
190,0.0
2,13, 1,13, 0, 1, 0.00,60.00,Friday
141,63837619.36634027
190,0.0
2,13, 1,13, 0, 2, 0.00,60.00,Friday
141,63145188.4061289
190,0.0
2,13, 1,13, 0, 3, 0.00,60.00,Friday
141,62188742.08011815
190,0.0
2,13, 1,13, 0, 4, 0.00,60.00,Friday
141,61517869.71585241
190,0.0
2,13, 1,13, 0, 5, 0.00,60.00,Friday
141,61253216.525231615
190,0.0
2,13, 1,13, 0, 6, 0.00,60.00,Friday
141,61181240.40272691
190,0.0
2,13, 1,13, 0, 7, 0.00,60.00,Friday
141,61450273.453413814
190,0.0
2,13, 1,13, 0, 8, 0.00,60.00,Friday
141,61310955.10778419
190,0.0
2,13, 1,13, 0, 9, 0.00,60.00,Friday
141,60598503.62033302
190,0.0
2,13, 1,13, 0,10, 0.00,60.00,Friday
141,61861907.72522769
190,0.0
2,13, 1,13, 0,11, 0.00,60.00,Friday
141,63329288.10156048
190,0.0
2,13, 1,13, 0,12, 0.00,60.00,Friday
141,63377827.776305124
190,0.0
2,13, 1,13, 0,13, 0.00,60.00,Friday
141,63560611.11287961
190,0.0
2,13, 1,13, 0,14, 0.00,60.00,Friday
141,64567586.44662467
190,0.0
2,13, 1,13, 0,15, 0.00,60.00,Friday
141,65174175.00522059
190,0.0
2,13, 1,13, 0,16, 0.00,60.00,Friday
141,65090929.29566431
190,0.0
2,13, 1,13, 0,17, 0.00,60.00,Friday
141,64870170.28541381
190,0.0
2,13, 1,13, 0,18, 0.00,60.00,Friday
141,64783063.23387205
190,0.0
2,13, 1,13, 0,19, 0.00,60.00,Friday
141,65731985.10554802
190,0.0
2,13, 1,13, 0,20, 0.00,60.00,Friday
141,67381714.73002386
190,0.0
2,13, 1,13, 0,21, 0.00,60.00,Friday
141,68899250.76498237
190,0.0
2,13, 1,13, 0,22, 0.00,60.00,Friday
141,69987934.79217869
190,0.0
2,13, 1,13, 0,23, 0.00,60.00,Friday
141,69943365.60008687
190,0.0
2,13, 1,13, 0,24, 0.00,60.00,Friday
141,74125293.69998285
190,0.0
2,14, 1,14, 0, 1, 0.00,60.00,Saturday
141,77157222.23325479
190,0.0
2,14, 1,14, 0, 2, 0.00,60.00,Saturday
141,76464372.91727832
190,0.0
2,14, 1,14, 0, 3, 0.00,60.00,Saturday
141,77037472.06601243
190,0.0
2,14, 1,14, 0, 4, 0.00,60.00,Saturday
141,76931314.31569177
190,0.0
2,14, 1,14, 0, 5, 0.00,60.00,Saturday
141,77080488.84029786
190,0.0
2,14, 1,14, 0, 6, 0.00,60.00,Saturday
141,80116611.06840326
190,0.0
2,14, 1,14, 0, 7, 0.00,60.00,Saturday
141,82516762.53068447
190,0.0
2,14, 1,14, 0, 8, 0.00,60.00,Saturday
141,82224938.8901602
190,0.0
2,14, 1,14, 0, 9, 0.00,60.00,Saturday
141,83787236.41852877
190,0.0
2,14, 1,14, 0,10, 0.00,60.00,Saturday
141,85772521.25947125
190,0.0
2,14, 1,14, 0,11, 0.00,60.00,Saturday
141,85621463.72668988
190,0.0
2,14, 1,14, 0,12, 0.00,60.00,Saturday
141,85085220.87716706
190,0.0
2,14, 1,14, 0,13, 0.00,60.00,Saturday
141,83752228.26939599
190,0.0
2,14, 1,14, 0,14, 0.00,60.00,Saturday
141,80640037.21533126
190,0.0
2,14, 1,14, 0,15, 0.00,60.00,Saturday
141,80228114.92881475
190,0.0
2,14, 1,14, 0,16, 0.00,60.00,Saturday
141,80828315.1009427
190,0.0
2,14, 1,14, 0,17, 0.00,60.00,Saturday
141,81942900.0525411
190,0.0
2,14, 1,14, 0,18, 0.00,60.00,Saturday
141,84266872.39578708
190,0.0
2,14, 1,14, 0,19, 0.00,60.00,Saturday
141,84394932.21480331
190,0.0
2,14, 1,14, 0,20, 0.00,60.00,Saturday
141,84952180.10893777
190,0.0
2,14, 1,14, 0,21, 0.00,60.00,Saturday
141,84841645.4668632
190,0.0
2,14, 1,14, 0,22, 0.00,60.00,Saturday
141,84409786.64382361
190,0.0
2,14, 1,14, 0,23, 0.00,60.00,Saturday
141,84231544.00181153
190,0.0
2,14, 1,14, 0,24, 0.00,60.00,Saturday
141,84385910.45723814
190,0.0
2,15, 1,15, 0, 1, 0.00,60.00,Sunday
141,83286511.04187627
190,0.0
2,15, 1,15, 0, 2, 0.00,60.00,Sunday
141,80116516.29732628
190,0.0
2,15, 1,15, 0, 3, 0.00,60.00,Sunday
141,78634840.80596495
190,0.0
2,15, 1,15, 0, 4, 0.00,60.00,Sunday
141,77536889.94747287
190,0.0
2,15, 1,15, 0, 5, 0.00,60.00,Sunday
141,75309601.39757639
190,0.0
2,15, 1,15, 0, 6, 0.00,60.00,Sunday
141,72843565.71606152
190,0.0
2,15, 1,15, 0, 7, 0.00,60.00,Sunday
141,70302163.60937709
190,0.0
2,15, 1,15, 0, 8, 0.00,60.00,Sunday
141,68444511.39071698
190,0.0
2,15, 1,15, 0, 9, 0.00,60.00,Sunday
141,66876699.79540698
190,0.0
2,15, 1,15, 0,10, 0.00,60.00,Sunday
141,66230228.96589132
190,0.0
2,15, 1,15, 0,11, 0.00,60.00,Sunday
141,66909773.3412649
190,0.0
2,15, 1,15, 0,12, 0.00,60.00,Sunday
141,69470552.9130882
190,0.0
2,15, 1,15, 0,13, 0.00,60.00,Sunday
141,71209005.5617441
190,0.0
2,15, 1,15, 0,14, 0.00,60.00,Sunday
141,71654896.95451301
190,0.0
2,15, 1,15, 0,15, 0.00,60.00,Sunday
141,71641012.97798537
190,0.0
2,15, 1,15, 0,16, 0.00,60.00,Sunday
141,70605763.89156285
190,0.0
2,15, 1,15, 0,17, 0.00,60.00,Sunday
141,69911275.3311785
190,0.0
2,15, 1,15, 0,18, 0.00,60.00,Sunday
141,69997418.11496432
190,0.0
2,15, 1,15, 0,19, 0.00,60.00,Sunday
141,70410387.91161984
190,0.0
2,15, 1,15, 0,20, 0.00,60.00,Sunday
141,70972404.22287783
190,0.0
2,15, 1,15, 0,21, 0.00,60.00,Sunday
141,72341482.82688238
190,0.0
2,15, 1,15, 0,22, 0.00,60.00,Sunday
141,72988738.44344278
190,0.0
2,15, 1,15, 0,23, 0.00,60.00,Sunday
141,73148744.5442578
190,0.0
2,15, 1,15, 0,24, 0.00,60.00,Sunday
141,73665967.03957993
190,0.0
2,16, 1,16, 0, 1, 0.00,60.00,Monday
141,75198633.0822177
190,0.0
2,16, 1,16, 0, 2, 0.00,60.00,Monday
141,76689652.87619296
190,0.0
2,16, 1,16, 0, 3, 0.00,60.00,Monday
141,77653525.4203895
190,0.0
2,16, 1,16, 0, 4, 0.00,60.00,Monday
141,78399856.99148847
190,0.0
2,16, 1,16, 0, 5, 0.00,60.00,Monday
141,79344992.66938053
190,0.0
2,16, 1,16, 0, 6, 0.00,60.00,Monday
141,80133685.5235565
190,0.0
2,16, 1,16, 0, 7, 0.00,60.00,Monday
141,81580866.50588077
190,0.0
2,16, 1,16, 0, 8, 0.00,60.00,Monday
141,82928297.07099792
190,0.0
2,16, 1,16, 0, 9, 0.00,60.00,Monday
141,83542814.10098314
190,0.0
2,16, 1,16, 0,10, 0.00,60.00,Monday
141,83630169.11069651
190,0.0
2,16, 1,16, 0,11, 0.00,60.00,Monday
141,80882943.78436059
190,0.0
2,16, 1,16, 0,12, 0.00,60.00,Monday
141,78415424.67833292
190,0.0
2,16, 1,16, 0,13, 0.00,60.00,Monday
141,76363668.66934144
190,0.0
2,16, 1,16, 0,14, 0.00,60.00,Monday
141,74843742.90769032
190,0.0
2,16, 1,16, 0,15, 0.00,60.00,Monday
141,74508556.50249483
190,0.0
2,16, 1,16, 0,16, 0.00,60.00,Monday
141,74995107.90958819
190,0.0
2,16, 1,16, 0,17, 0.00,60.00,Monday
141,76400262.74706587
190,0.0
2,16, 1,16, 0,18, 0.00,60.00,Monday
141,79120475.41800278
190,0.0
2,16, 1,16, 0,19, 0.00,60.00,Monday
141,81954173.98586172
190,0.0
2,16, 1,16, 0,20, 0.00,60.00,Monday
141,83362901.52481619
190,0.0
2,16, 1,16, 0,21, 0.00,60.00,Monday
141,84455018.53860338
190,0.0
2,16, 1,16, 0,22, 0.00,60.00,Monday
141,85441357.71842201
190,0.0
2,16, 1,16, 0,23, 0.00,60.00,Monday
141,86950212.05913468
190,0.0
2,16, 1,16, 0,24, 0.00,60.00,Monday
141,87254788.52614492
190,0.0
2,17, 1,17, 0, 1, 0.00,60.00,Tuesday
141,87732036.20111924
190,0.0
2,17, 1,17, 0, 2, 0.00,60.00,Tuesday
141,89733760.29762033
190,0.0
2,17, 1,17, 0, 3, 0.00,60.00,Tuesday
141,91538602.9917972
190,0.0
2,17, 1,17, 0, 4, 0.00,60.00,Tuesday
141,93160876.8962142
190,0.0
2,17, 1,17, 0, 5, 0.00,60.00,Tuesday
141,94935576.96804523
190,0.0
2,17, 1,17, 0, 6, 0.00,60.00,Tuesday
141,96702494.93293494
190,0.0
2,17, 1,17, 0, 7, 0.00,60.00,Tuesday
141,97852448.29901837
190,0.0
2,17, 1,17, 0, 8, 0.00,60.00,Tuesday
141,98577710.21277267
190,0.0
2,17, 1,17, 0, 9, 0.00,60.00,Tuesday
141,98918980.50811979
190,0.0
2,17, 1,17, 0,10, 0.00,60.00,Tuesday
141,95931076.93463245
190,0.0
2,17, 1,17, 0,11, 0.00,60.00,Tuesday
141,91396030.49889636
190,0.0
2,17, 1,17, 0,12, 0.00,60.00,Tuesday
141,87429119.19683872
190,0.0
2,17, 1,17, 0,13, 0.00,60.00,Tuesday
141,84962368.6523687
190,0.0
2,17, 1,17, 0,14, 0.00,60.00,Tuesday
141,84076322.69476569
190,0.0
2,17, 1,17, 0,15, 0.00,60.00,Tuesday
141,84216432.95532806
190,0.0
2,17, 1,17, 0,16, 0.00,60.00,Tuesday
141,85721324.99292582
190,0.0
2,17, 1,17, 0,17, 0.00,60.00,Tuesday
141,86705156.85386953
190,0.0
2,17, 1,17, 0,18, 0.00,60.00,Tuesday
141,86108466.16663826
190,0.0
2,17, 1,17, 0,19, 0.00,60.00,Tuesday
141,85308695.2166048
190,0.0
2,17, 1,17, 0,20, 0.00,60.00,Tuesday
141,85290534.2519845
190,0.0
2,17, 1,17, 0,21, 0.00,60.00,Tuesday
141,85757726.75650778
190,0.0
2,17, 1,17, 0,22, 0.00,60.00,Tuesday
141,85774909.1978384
190,0.0
2,17, 1,17, 0,23, 0.00,60.00,Tuesday
141,85878762.7513099
190,0.0
2,17, 1,17, 0,24, 0.00,60.00,Tuesday
141,86958039.55258587
190,0.0
2,18, 1,18, 0, 1, 0.00,60.00,Wednesday
141,87755130.14844699
190,0.0
2,18, 1,18, 0, 2, 0.00,60.00,Wednesday
141,88498179.480167
190,0.0
2,18, 1,18, 0, 3, 0.00,60.00,Wednesday
141,89032644.99837327
190,0.0
2,18, 1,18, 0, 4, 0.00,60.00,Wednesday
141,89371478.21356912
190,0.0
2,18, 1,18, 0, 5, 0.00,60.00,Wednesday
141,89822543.85350338
190,0.0
2,18, 1,18, 0, 6, 0.00,60.00,Wednesday
141,90409465.92783953
190,0.0
2,18, 1,18, 0, 7, 0.00,60.00,Wednesday
141,92276232.03806527
190,0.0
2,18, 1,18, 0, 8, 0.00,60.00,Wednesday
141,92953271.1912893
190,0.0
2,18, 1,18, 0, 9, 0.00,60.00,Wednesday
141,93363112.44586274
190,0.0
2,18, 1,18, 0,10, 0.00,60.00,Wednesday
141,93383195.07436457
190,0.0
2,18, 1,18, 0,11, 0.00,60.00,Wednesday
141,91914748.42111222
190,0.0
2,18, 1,18, 0,12, 0.00,60.00,Wednesday
141,90779009.94043279
190,0.0
2,18, 1,18, 0,13, 0.00,60.00,Wednesday
141,91342429.85146077
190,0.0
2,18, 1,18, 0,14, 0.00,60.00,Wednesday
141,92485335.39676756
190,0.0
2,18, 1,18, 0,15, 0.00,60.00,Wednesday
141,93025791.80739972
190,0.0
2,18, 1,18, 0,16, 0.00,60.00,Wednesday
141,94257213.39778507
190,0.0
2,18, 1,18, 0,17, 0.00,60.00,Wednesday
141,94801878.54569323
190,0.0
2,18, 1,18, 0,18, 0.00,60.00,Wednesday
141,94164128.02668016
190,0.0
2,18, 1,18, 0,19, 0.00,60.00,Wednesday
141,93847279.8539778
190,0.0
2,18, 1,18, 0,20, 0.00,60.00,Wednesday
141,94070125.74907357
190,0.0
2,18, 1,18, 0,21, 0.00,60.00,Wednesday
141,94246530.68496971
190,0.0
2,18, 1,18, 0,22, 0.00,60.00,Wednesday
141,94694590.9094662
190,0.0
2,18, 1,18, 0,23, 0.00,60.00,Wednesday
141,95015665.77336808
190,0.0
2,18, 1,18, 0,24, 0.00,60.00,Wednesday
141,95437326.51950453
190,0.0
2,19, 1,19, 0, 1, 0.00,60.00,Thursday
141,94925337.20429865
190,0.0
2,19, 1,19, 0, 2, 0.00,60.00,Thursday
141,95154228.6862791
190,0.0
2,19, 1,19, 0, 3, 0.00,60.00,Thursday
141,96535611.67916767
190,0.0
2,19, 1,19, 0, 4, 0.00,60.00,Thursday
141,96496793.196814
190,0.0
2,19, 1,19, 0, 5, 0.00,60.00,Thursday
141,97269502.63010469