Program Version,EnergyPlus, Version 24.2.0-94a887817b, YMD=2025.04.24 13:23
1,5,Environment Title[],Latitude[deg],Longitude[deg],Time Zone[],Elevation[m]
2,8,Day of Simulation[],Month[],Day of Month[],DST Indicator[1=yes 0=no],Hour[],StartMinute[],EndMinute[],DayType
3,5,Cumulative Day of Simulation[],Month[],Day of Month[],DST Indicator[1=yes 0=no],DayType  ! When Daily Report Variables Requested
4,2,Cumulative Days of Simulation[],Month[]  ! When Monthly Report Variables Requested
5,1,Cumulative Days of Simulation[] ! When Run Period Report Variables Requested
6,1,Calendar Year of Simulation[] ! When Annual Report Variables Requested
141,1,ZONE_0599100015001671 IDEAL LOADS AIR SYSTEM,Zone Ideal Loads Supply Air Total Heating Energy [J] !Hourly
190,1,ZONE_0599100015001671 IDEAL LOADS AIR SYSTEM,Zone Ideal Loads Supply Air Total Cooling Energy [J] !Hourly
End of Data Dictionary
1,RUN PERIOD 1,  51.96,   4.45,   1.00,  -4.50
2,1, 1, 1, 0, 1, 0.00,60.00,Sunday
141,87580331.02270499
190,0.0
2,1, 1, 1, 0, 2, 0.00,60.00,Sunday
141,90165352.95559835
190,0.0
2,1, 1, 1, 0, 3, 0.00,60.00,Sunday
141,90186494.67791945
190,0.0
2,1, 1, 1, 0, 4, 0.00,60.00,Sunday
141,92124247.97028573
190,0.0
2,1, 1, 1, 0, 5, 0.00,60.00,Sunday
141,93516000.70665996
190,0.0
2,1, 1, 1, 0, 6, 0.00,60.00,Sunday
141,93829009.76638603
190,0.0
2,1, 1, 1, 0, 7, 0.00,60.00,Sunday
141,94274932.63232124
190,0.0
2,1, 1, 1, 0, 8, 0.00,60.00,Sunday
141,94364789.20674342
190,0.0
2,1, 1, 1, 0, 9, 0.00,60.00,Sunday
141,94508155.1981852
190,0.0
2,1, 1, 1, 0,10, 0.00,60.00,Sunday
141,94218704.17444801
190,0.0
2,1, 1, 1, 0,11, 0.00,60.00,Sunday
141,92980058.31065741
190,0.0
2,1, 1, 1, 0,12, 0.00,60.00,Sunday
141,90719739.56172389
190,0.0
2,1, 1, 1, 0,13, 0.00,60.00,Sunday
141,89594166.81948432
190,0.0
2,1, 1, 1, 0,14, 0.00,60.00,Sunday
141,87786474.93085662
190,0.0
2,1, 1, 1, 0,15, 0.00,60.00,Sunday
141,86278390.35623017
190,0.0
2,1, 1, 1, 0,16, 0.00,60.00,Sunday
141,86951000.20732072
190,0.0
2,1, 1, 1, 0,17, 0.00,60.00,Sunday
141,87859718.31389965
190,0.0
2,1, 1, 1, 0,18, 0.00,60.00,Sunday
141,87809362.13556914
190,0.0
2,1, 1, 1, 0,19, 0.00,60.00,Sunday
141,87809337.40042943
190,0.0
2,1, 1, 1, 0,20, 0.00,60.00,Sunday
141,87457942.1531835
190,0.0
2,1, 1, 1, 0,21, 0.00,60.00,Sunday
141,87065909.38979293
190,0.0
2,1, 1, 1, 0,22, 0.00,60.00,Sunday
141,87170391.44234687
190,0.0
2,1, 1, 1, 0,23, 0.00,60.00,Sunday
141,85423417.73627052
190,0.0
2,1, 1, 1, 0,24, 0.00,60.00,Sunday
141,84169383.94346586
190,0.0
2,2, 1, 2, 0, 1, 0.00,60.00,Monday
141,84470202.19460028
190,0.0
2,2, 1, 2, 0, 2, 0.00,60.00,Monday
141,82754109.57809192
190,0.0
2,2, 1, 2, 0, 3, 0.00,60.00,Monday
141,81425489.82550572
190,0.0
2,2, 1, 2, 0, 4, 0.00,60.00,Monday
141,80043723.51595218
190,0.0
2,2, 1, 2, 0, 5, 0.00,60.00,Monday
141,76973290.89536843
190,0.0
2,2, 1, 2, 0, 6, 0.00,60.00,Monday
141,75426392.89625475
190,0.0
2,2, 1, 2, 0, 7, 0.00,60.00,Monday
141,72993400.67723748
190,0.0
2,2, 1, 2, 0, 8, 0.00,60.00,Monday
141,69991625.70128214
190,0.0
2,2, 1, 2, 0, 9, 0.00,60.00,Monday
141,70517022.14913365
190,0.0
2,2, 1, 2, 0,10, 0.00,60.00,Monday
141,72176396.72072582
190,0.0
2,2, 1, 2, 0,11, 0.00,60.00,Monday
141,73121468.31952971
190,0.0
2,2, 1, 2, 0,12, 0.00,60.00,Monday
141,71488278.25739732
190,0.0
2,2, 1, 2, 0,13, 0.00,60.00,Monday
141,70650421.46835425
190,0.0
2,2, 1, 2, 0,14, 0.00,60.00,Monday
141,71891880.4294775
190,0.0
2,2, 1, 2, 0,15, 0.00,60.00,Monday
141,72453045.21713802
190,0.0
2,2, 1, 2, 0,16, 0.00,60.00,Monday
141,73830945.2395174
190,0.0
2,2, 1, 2, 0,17, 0.00,60.00,Monday
141,75256270.0904706
190,0.0
2,2, 1, 2, 0,18, 0.00,60.00,Monday
141,75675170.59455195
190,0.0
2,2, 1, 2, 0,19, 0.00,60.00,Monday
141,77357557.1374973
190,0.0
2,2, 1, 2, 0,20, 0.00,60.00,Monday
141,78965879.04520565
190,0.0
2,2, 1, 2, 0,21, 0.00,60.00,Monday
141,79495227.40182997
190,0.0
2,2, 1, 2, 0,22, 0.00,60.00,Monday
141,79799507.2705364
190,0.0
2,2, 1, 2, 0,23, 0.00,60.00,Monday
141,80225520.13089322
190,0.0
2,2, 1, 2, 0,24, 0.00,60.00,Monday
141,80691615.43729118
190,0.0
2,3, 1, 3, 0, 1, 0.00,60.00,Tuesday
141,81192222.20681797
190,0.0
2,3, 1, 3, 0, 2, 0.00,60.00,Tuesday
141,81547489.58505477
190,0.0
2,3, 1, 3, 0, 3, 0.00,60.00,Tuesday
141,81822019.50542983
190,0.0
2,3, 1, 3, 0, 4, 0.00,60.00,Tuesday
141,82290072.91052558
190,0.0
2,3, 1, 3, 0, 5, 0.00,60.00,Tuesday
141,84117969.44482774
190,0.0
2,3, 1, 3, 0, 6, 0.00,60.00,Tuesday
141,85254674.76652549
190,0.0
2,3, 1, 3, 0, 7, 0.00,60.00,Tuesday
141,85752434.04789315
190,0.0
2,3, 1, 3, 0, 8, 0.00,60.00,Tuesday
141,85534339.05065182
190,0.0
2,3, 1, 3, 0, 9, 0.00,60.00,Tuesday
141,86813895.56216252
190,0.0
2,3, 1, 3, 0,10, 0.00,60.00,Tuesday
141,87374377.58948556
190,0.0
2,3, 1, 3, 0,11, 0.00,60.00,Tuesday
141,87441316.83988424
190,0.0
2,3, 1, 3, 0,12, 0.00,60.00,Tuesday
141,87768747.62746409
190,0.0
2,3, 1, 3, 0,13, 0.00,60.00,Tuesday
141,89840080.6619482
190,0.0
2,3, 1, 3, 0,14, 0.00,60.00,Tuesday
141,91018298.94374898
190,0.0
2,3, 1, 3, 0,15, 0.00,60.00,Tuesday
141,90793912.63364567
190,0.0
2,3, 1, 3, 0,16, 0.00,60.00,Tuesday
141,90570012.07548757
190,0.0
2,3, 1, 3, 0,17, 0.00,60.00,Tuesday
141,90615938.55560672
190,0.0
2,3, 1, 3, 0,18, 0.00,60.00,Tuesday
141,90735887.90055138
190,0.0
2,3, 1, 3, 0,19, 0.00,60.00,Tuesday
141,90323107.80047013
190,0.0
2,3, 1, 3, 0,20, 0.00,60.00,Tuesday
141,88588744.29739791
190,0.0
2,3, 1, 3, 0,21, 0.00,60.00,Tuesday
141,84072661.69339822
190,0.0
2,3, 1, 3, 0,22, 0.00,60.00,Tuesday
141,81732305.23029093
190,0.0
2,3, 1, 3, 0,23, 0.00,60.00,Tuesday
141,83592857.57813863
190,0.0
2,3, 1, 3, 0,24, 0.00,60.00,Tuesday
141,86673083.67421257
190,0.0
2,4, 1, 4, 0, 1, 0.00,60.00,Wednesday
141,88266451.24584077
190,0.0
2,4, 1, 4, 0, 2, 0.00,60.00,Wednesday
141,88203558.33457902
190,0.0
2,4, 1, 4, 0, 3, 0.00,60.00,Wednesday
141,88000978.64518715
190,0.0
2,4, 1, 4, 0, 4, 0.00,60.00,Wednesday
141,88760842.88012476
190,0.0
2,4, 1, 4, 0, 5, 0.00,60.00,Wednesday
141,90938581.96171874
190,0.0
2,4, 1, 4, 0, 6, 0.00,60.00,Wednesday
141,90612690.53389375
190,0.0
2,4, 1, 4, 0, 7, 0.00,60.00,Wednesday
141,90643481.77756579
190,0.0
2,4, 1, 4, 0, 8, 0.00,60.00,Wednesday
141,91500222.21267445
190,0.0
2,4, 1, 4, 0, 9, 0.00,60.00,Wednesday
141,92109319.20999445
190,0.0
2,4, 1, 4, 0,10, 0.00,60.00,Wednesday
141,92597947.34904161
190,0.0
2,4, 1, 4, 0,11, 0.00,60.00,Wednesday
141,89154896.26878345
190,0.0
2,4, 1, 4, 0,12, 0.00,60.00,Wednesday
141,83360616.51470965
190,0.0
2,4, 1, 4, 0,13, 0.00,60.00,Wednesday
141,81963002.0947162
190,0.0
2,4, 1, 4, 0,14, 0.00,60.00,Wednesday
141,81902361.73208556
190,0.0
2,4, 1, 4, 0,15, 0.00,60.00,Wednesday
141,81375098.17110737
190,0.0
2,4, 1, 4, 0,16, 0.00,60.00,Wednesday
141,83752026.05308095
190,0.0
2,4, 1, 4, 0,17, 0.00,60.00,Wednesday
141,87992629.86138654
190,0.0
2,4, 1, 4, 0,18, 0.00,60.00,Wednesday
141,91625551.67037605
190,0.0
2,4, 1, 4, 0,19, 0.00,60.00,Wednesday
141,95353679.17623961
190,0.0
2,4, 1, 4, 0,20, 0.00,60.00,Wednesday
141,97339746.62813531
190,0.0
2,4, 1, 4, 0,21, 0.00,60.00,Wednesday
141,98351174.3721723
190,0.0
2,4, 1, 4, 0,22, 0.00,60.00,Wednesday
141,100459066.6810604
190,0.0
2,4, 1, 4, 0,23, 0.00,60.00,Wednesday
141,100005029.17768683
190,0.0
2,4, 1, 4, 0,24, 0.00,60.00,Wednesday
141,99090837.33498302
190,0.0
2,5, 1, 5, 0, 1, 0.00,60.00,Thursday
141,100098878.44188355
190,0.0
2,5, 1, 5, 0, 2, 0.00,60.00,Thursday
141,99660739.98496373
190,0.0
2,5, 1, 5, 0, 3, 0.00,60.00,Thursday
141,99204952.78517576
190,0.0
2,5, 1, 5, 0, 4, 0.00,60.00,Thursday
141,99767145.26710872
190,0.0
2,5, 1, 5, 0, 5, 0.00,60.00,Thursday
141,99006617.27417782
190,0.0
2,5, 1, 5, 0, 6, 0.00,60.00,Thursday
141,98752038.87013893
190,0.0
2,5, 1, 5, 0, 7, 0.00,60.00,Thursday
141,99541999.9545057
190,0.0
2,5, 1, 5, 0, 8, 0.00,60.00,Thursday
141,100167041.07102723
190,0.0
2,5, 1, 5, 0, 9, 0.00,60.00,Thursday
141,100332505.46692841
190,0.0
2,5, 1, 5, 0,10, 0.00,60.00,Thursday
141,101379947.5804368
190,0.0
2,5, 1, 5, 0,11, 0.00,60.00,Thursday
141,100941211.95673308
190,0.0
2,5, 1, 5, 0,12, 0.00,60.00,Thursday
141,98198602.3866063
190,0.0
2,5, 1, 5, 0,13, 0.00,60.00,Thursday
141,96989252.42126594
190,0.0
2,5, 1, 5, 0,14, 0.00,60.00,Thursday
141,94692644.51190428
190,0.0
2,5, 1, 5, 0,15, 0.00,60.00,Thursday
141,92641746.10345152
190,0.0
2,5, 1, 5, 0,16, 0.00,60.00,Thursday
141,93149280.30216745
190,0.0
2,5, 1, 5, 0,17, 0.00,60.00,Thursday
141,92152911.54077846
190,0.0
2,5, 1, 5, 0,18, 0.00,60.00,Thursday
141,90702761.46976721
190,0.0
2,5, 1, 5, 0,19, 0.00,60.00,Thursday
141,90563826.15508136
190,0.0
2,5, 1, 5, 0,20, 0.00,60.00,Thursday
141,89983506.80656025
190,0.0
2,5, 1, 5, 0,21, 0.00,60.00,Thursday
141,89303668.2173039
190,0.0
2,5, 1, 5, 0,22, 0.00,60.00,Thursday
141,89019022.93529265
190,0.0
2,5, 1, 5, 0,23, 0.00,60.00,Thursday
141,89124817.55741873
190,0.0
2,5, 1, 5, 0,24, 0.00,60.00,Thursday
141,89310287.54614793
190,0.0
2,6, 1, 6, 0, 1, 0.00,60.00,Friday
141,89384954.29000112
190,0.0
2,6, 1, 6, 0, 2, 0.00,60.00,Friday
141,89468411.63668221
190,0.0
2,6, 1, 6, 0, 3, 0.00,60.00,Friday
141,91000178.65505107
190,0.0
2,6, 1, 6, 0, 4, 0.00,60.00,Friday
141,92499049.94588837
190,0.0
2,6, 1, 6, 0, 5, 0.00,60.00,Friday
141,93241800.70516433
190,0.0
2,6, 1, 6, 0, 6, 0.00,60.00,Friday
141,94210261.67943414
190,0.0
2,6, 1, 6, 0, 7, 0.00,60.00,Friday
141,95727073.77384508
190,0.0
2,6, 1, 6, 0, 8, 0.00,60.00,Friday
141,97216997.97865391
190,0.0
2,6, 1, 6, 0, 9, 0.00,60.00,Friday
141,99068756.40792792
190,0.0
2,6, 1, 6, 0,10, 0.00,60.00,Friday
141,100277927.12216698
190,0.0
2,6, 1, 6, 0,11, 0.00,60.00,Friday
141,99346455.37630135
190,0.0
2,6, 1, 6, 0,12, 0.00,60.00,Friday
141,97785614.91506472
190,0.0
2,6, 1, 6, 0,13, 0.00,60.00,Friday
141,97127739.66042967
190,0.0
2,6, 1, 6, 0,14, 0.00,60.00,Friday
141,96857612.51734255
190,0.0
2,6, 1, 6, 0,15, 0.00,60.00,Friday
141,96297374.45994107
190,0.0
2,6, 1, 6, 0,16, 0.00,60.00,Friday
141,94967066.49559152
190,0.0
2,6, 1, 6, 0,17, 0.00,60.00,Friday
141,93554768.1700797
190,0.0
2,6, 1, 6, 0,18, 0.00,60.00,Friday
141,92797208.96887085
190,0.0
2,6, 1, 6, 0,19, 0.00,60.00,Friday
141,92026382.47816502
190,0.0
2,6, 1, 6, 0,20, 0.00,60.00,Friday
141,90430137.65717174
190,0.0
2,6, 1, 6, 0,21, 0.00,60.00,Friday
141,86565315.3032895
190,0.0
2,6, 1, 6, 0,22, 0.00,60.00,Friday
141,81984603.52040067
190,0.0
2,6, 1, 6, 0,23, 0.00,60.00,Friday
141,80044885.73769249
190,0.0
2,6, 1, 6, 0,24, 0.00,60.00,Friday
141,80648329.63706806
190,0.0
2,7, 1, 7, 0, 1, 0.00,60.00,Saturday
141,84495007.21307735
190,0.0
2,7, 1, 7, 0, 2, 0.00,60.00,Saturday
141,88253055.98757231
190,0.0
2,7, 1, 7, 0, 3, 0.00,60.00,Saturday
141,87630138.91477758
190,0.0
2,7, 1, 7, 0, 4, 0.00,60.00,Saturday
141,87859479.11303751
190,0.0
2,7, 1, 7, 0, 5, 0.00,60.00,Saturday
141,90407412.02404006
190,0.0
2,7, 1, 7, 0, 6, 0.00,60.00,Saturday
141,92412764.04288769
190,0.0
2,7, 1, 7, 0, 7, 0.00,60.00,Saturday
141,93601660.62602347
190,0.0
2,7, 1, 7, 0, 8, 0.00,60.00,Saturday
141,94224711.05761096
190,0.0
2,7, 1, 7, 0, 9, 0.00,60.00,Saturday
141,92855495.98429203
190,0.0
2,7, 1, 7, 0,10, 0.00,60.00,Saturday
141,91694464.0540415
190,0.0
2,7, 1, 7, 0,11, 0.00,60.00,Saturday
141,88045655.614857
190,0.0
2,7, 1, 7, 0,12, 0.00,60.00,Saturday
141,84309150.86707477
190,0.0
2,7, 1, 7, 0,13, 0.00,60.00,Saturday
141,81419027.43286948
190,0.0
2,7, 1, 7, 0,14, 0.00,60.00,Saturday
141,79626887.6298355
190,0.0
2,7, 1, 7, 0,15, 0.00,60.00,Saturday
141,79606122.40131003
190,0.0
2,7, 1, 7, 0,16, 0.00,60.00,Saturday
141,80092926.74089143
190,0.0
2,7, 1, 7, 0,17, 0.00,60.00,Saturday
141,80317731.1295125
190,0.0
2,7, 1, 7, 0,18, 0.00,60.00,Saturday
141,81410442.32133938
190,0.0
2,7, 1, 7, 0,19, 0.00,60.00,Saturday
141,82534848.3900795
190,0.0
2,7, 1, 7, 0,20, 0.00,60.00,Saturday
141,83785679.75664507
190,0.0
2,7, 1, 7, 0,21, 0.00,60.00,Saturday
141,84734045.46269357
190,0.0
2,7, 1, 7, 0,22, 0.00,60.00,Saturday
141,84678679.97032626
190,0.0
2,7, 1, 7, 0,23, 0.00,60.00,Saturday
141,84921918.7660649
190,0.0
2,7, 1, 7, 0,24, 0.00,60.00,Saturday
141,84967966.95435303
190,0.0
2,8, 1, 8, 0, 1, 0.00,60.00,Sunday
141,84144239.36625238
190,0.0
2,8, 1, 8, 0, 2, 0.00,60.00,Sunday
141,83263174.87005651
190,0.0
2,8, 1, 8, 0, 3, 0.00,60.00,Sunday
141,82581539.91847995
190,0.0
2,8, 1, 8, 0, 4, 0.00,60.00,Sunday
141,81381621.2428607
190,0.0
2,8, 1, 8, 0, 5, 0.00,60.00,Sunday
141,79736199.58788182
190,0.0
2,8, 1, 8, 0, 6, 0.00,60.00,Sunday
141,78493128.61825372
190,0.0
2,8, 1, 8, 0, 7, 0.00,60.00,Sunday
141,77489276.01023977
190,0.0
2,8, 1, 8, 0, 8, 0.00,60.00,Sunday
141,76526789.94574648
190,0.0
2,8, 1, 8, 0, 9, 0.00,60.00,Sunday
141,75400628.85815664
190,0.0
2,8, 1, 8, 0,10, 0.00,60.00,Sunday
141,74911418.67585544
190,0.0
2,8, 1, 8, 0,11, 0.00,60.00,Sunday
141,74424547.16559336
190,0.0
2,8, 1, 8, 0,12, 0.00,60.00,Sunday
141,74360087.63353014
190,0.0
2,8, 1, 8, 0,13, 0.00,60.00,Sunday
141,73832132.8589291
190,0.0
2,8, 1, 8, 0,14, 0.00,60.00,Sunday
141,73743719.81223424
190,0.0
2,8, 1, 8, 0,15, 0.00,60.00,Sunday
141,75772975.9016333
190,0.0
2,8, 1, 8, 0,16, 0.00,60.00,Sunday
141,77194640.65965164
190,0.0
2,8, 1, 8, 0,17, 0.00,60.00,Sunday
141,77075369.63768333
190,0.0
2,8, 1, 8, 0,18, 0.00,60.00,Sunday
141,77719037.42293425
190,0.0
2,8, 1, 8, 0,19, 0.00,60.00,Sunday
141,77310150.52405436
190,0.0
2,8, 1, 8, 0,20, 0.00,60.00,Sunday
141,75954583.52558449
190,0.0
2,8, 1, 8, 0,21, 0.00,60.00,Sunday
141,75034740.64877117
190,0.0
2,8, 1, 8, 0,22, 0.00,60.00,Sunday
141,75457318.1636167
190,0.0
2,8, 1, 8, 0,23, 0.00,60.00,Sunday
141,75873681.32788196
190,0.0
2,8, 1, 8, 0,24, 0.00,60.00,Sunday
141,76856724.84287597
190,0.0
2,9, 1, 9, 0, 1, 0.00,60.00,Monday
141,77156628.62474048
190,0.0
2,9, 1, 9, 0, 2, 0.00,60.00,Monday
141,77398776.6675512
190,0.0
2,9, 1, 9, 0, 3, 0.00,60.00,Monday
141,77350457.33653548
190,0.0
2,9, 1, 9, 0, 4, 0.00,60.00,Monday
141,76985725.6396783
190,0.0
2,9, 1, 9, 0, 5, 0.00,60.00,Monday
141,75948614.34845294
190,0.0
2,9, 1, 9, 0, 6, 0.00,60.00,Monday
141,74850755.92619333
190,0.0
2,9, 1, 9, 0, 7, 0.00,60.00,Monday
141,74024937.72007705
190,0.0
2,9, 1, 9, 0, 8, 0.00,60.00,Monday
141,73529981.90698066
190,0.0
2,9, 1, 9, 0, 9, 0.00,60.00,Monday
141,72177425.22054313
190,0.0
2,9, 1, 9, 0,10, 0.00,60.00,Monday
141,68979249.75460963
190,0.0
2,9, 1, 9, 0,11, 0.00,60.00,Monday
141,66228051.77278801
190,0.0
2,9, 1, 9, 0,12, 0.00,60.00,Monday
141,64626805.4659043
190,0.0
2,9, 1, 9, 0,13, 0.00,60.00,Monday
141,63217886.83514077
190,0.0
2,9, 1, 9, 0,14, 0.00,60.00,Monday
141,62053666.10006374
190,0.0
2,9, 1, 9, 0,15, 0.00,60.00,Monday
141,61398796.72442368
190,0.0
2,9, 1, 9, 0,16, 0.00,60.00,Monday
141,61639560.59034615
190,0.0
2,9, 1, 9, 0,17, 0.00,60.00,Monday
141,63370008.050421655
190,0.0
2,9, 1, 9, 0,18, 0.00,60.00,Monday
141,65033198.425426975
190,0.0
2,9, 1, 9, 0,19, 0.00,60.00,Monday
141,64631566.77368448
190,0.0
2,9, 1, 9, 0,20, 0.00,60.00,Monday
141,61687597.99573174
190,0.0
2,9, 1, 9, 0,21, 0.00,60.00,Monday
141,58732498.197820745
190,0.0
2,9, 1, 9, 0,22, 0.00,60.00,Monday
141,56828641.99595764
190,0.0
2,9, 1, 9, 0,23, 0.00,60.00,Monday
141,56246078.86359498
190,0.0
2,9, 1, 9, 0,24, 0.00,60.00,Monday
141,56072823.81087107
190,0.0
2,10, 1,10, 0, 1, 0.00,60.00,Tuesday
141,56415550.72110977
190,0.0
2,10, 1,10, 0, 2, 0.00,60.00,Tuesday
141,56476410.63084402
190,0.0
2,10, 1,10, 0, 3, 0.00,60.00,Tuesday
141,56103388.02317724
190,0.0
2,10, 1,10, 0, 4, 0.00,60.00,Tuesday
141,56507675.91214456
190,0.0
2,10, 1,10, 0, 5, 0.00,60.00,Tuesday
141,56398493.30722907
190,0.0
2,10, 1,10, 0, 6, 0.00,60.00,Tuesday
141,56117774.09750511
190,0.0
2,10, 1,10, 0, 7, 0.00,60.00,Tuesday
141,55907970.01514212
190,0.0
2,10, 1,10, 0, 8, 0.00,60.00,Tuesday
141,55337645.97030269
190,0.0
2,10, 1,10, 0, 9, 0.00,60.00,Tuesday
141,54683061.148763396
190,0.0
2,10, 1,10, 0,10, 0.00,60.00,Tuesday
141,53911832.662488565
190,0.0
2,10, 1,10, 0,11, 0.00,60.00,Tuesday
141,52900620.54821938
190,0.0
2,10, 1,10, 0,12, 0.00,60.00,Tuesday
141,51782675.99048958
190,0.0
2,10, 1,10, 0,13, 0.00,60.00,Tuesday
141,51491259.04390803
190,0.0
2,10, 1,10, 0,14, 0.00,60.00,Tuesday
141,54964583.36412475
190,0.0
2,10, 1,10, 0,15, 0.00,60.00,Tuesday
141,57790120.30660932
190,0.0
2,10, 1,10, 0,16, 0.00,60.00,Tuesday
141,59581598.035107136
190,0.0
2,10, 1,10, 0,17, 0.00,60.00,Tuesday
141,61551828.16005431
190,0.0
2,10, 1,10, 0,18, 0.00,60.00,Tuesday
141,64205925.01951404
190,0.0
2,10, 1,10, 0,19, 0.00,60.00,Tuesday
141,65911460.846221834
190,0.0
2,10, 1,10, 0,20, 0.00,60.00,Tuesday
141,67508282.83851643
190,0.0
2,10, 1,10, 0,21, 0.00,60.00,Tuesday
141,69860560.58658664
190,0.0
2,10, 1,10, 0,22, 0.00,60.00,Tuesday
141,71714422.8558359
190,0.0
2,10, 1,10, 0,23, 0.00,60.00,Tuesday
141,72267896.2145217
190,0.0
2,10, 1,10, 0,24, 0.00,60.00,Tuesday
141,74398857.29700078
190,0.0
2,11, 1,11, 0, 1, 0.00,60.00,Wednesday
141,75721464.48388596
190,0.0
2,11, 1,11, 0, 2, 0.00,60.00,Wednesday
141,77023285.70747526
190,0.0
2,11, 1,11, 0, 3, 0.00,60.00,Wednesday
141,78650008.69809553
190,0.0
2,11, 1,11, 0, 4, 0.00,60.00,Wednesday
141,78846073.21488576
190,0.0
2,11, 1,11, 0, 5, 0.00,60.00,Wednesday
141,79086361.81045441
190,0.0
2,11, 1,11, 0, 6, 0.00,60.00,Wednesday
141,79499157.27222078
190,0.0
2,11, 1,11, 0, 7, 0.00,60.00,Wednesday
141,80182507.03554082
190,0.0
2,11, 1,11, 0, 8, 0.00,60.00,Wednesday
141,80790511.689405
190,0.0
2,11, 1,11, 0, 9, 0.00,60.00,Wednesday
141,80909795.07172085
190,0.0
2,11, 1,11, 0,10, 0.00,60.00,Wednesday
141,80690260.41758792
190,0.0
2,11, 1,11, 0,11, 0.00,60.00,Wednesday
141,80117034.96777639
190,0.0
2,11, 1,11, 0,12, 0.00,60.00,Wednesday
141,78976002.8074143
190,0.0
2,11, 1,11, 0,13, 0.00,60.00,Wednesday
141,77925757.91375393
190,0.0
2,11, 1,11, 0,14, 0.00,60.00,Wednesday
141,77199129.73347417
190,0.0
2,11, 1,11, 0,15, 0.00,60.00,Wednesday
141,76591143.73823869
190,0.0
2,11, 1,11, 0,16, 0.00,60.00,Wednesday
141,76011582.36749958
190,0.0
2,11, 1,11, 0,17, 0.00,60.00,Wednesday
141,74727660.69080102
190,0.0
2,11, 1,11, 0,18, 0.00,60.00,Wednesday
141,73523349.96945053
190,0.0
2,11, 1,11, 0,19, 0.00,60.00,Wednesday
141,72615017.89318582
190,0.0
2,11, 1,11, 0,20, 0.00,60.00,Wednesday
141,72210897.24439499
190,0.0
2,11, 1,11, 0,21, 0.00,60.00,Wednesday
141,71939946.41892545
190,0.0
2,11, 1,11, 0,22, 0.00,60.00,Wednesday
141,70468902.92383519
190,0.0
2,11, 1,11, 0,23, 0.00,60.00,Wednesday
141,69341687.0272913
190,0.0
2,11, 1,11, 0,24, 0.00,60.00,Wednesday
141,69314205.39904419
190,0.0
2,12, 1,12, 0, 1, 0.00,60.00,Thursday
141,69691566.06743482
190,0.0
2,12, 1,12, 0, 2, 0.00,60.00,Thursday
141,69650885.1520474
190,0.0
2,12, 1,12, 0, 3, 0.00,60.00,Thursday
141,69242173.49586962
190,0.0
2,12, 1,12, 0, 4, 0.00,60.00,Thursday
141,69191537.60824212
190,0.0
2,12, 1,12, 0, 5, 0.00,60.00,Thursday
141,69562654.30975513
190,0.0
2,12, 1,12, 0, 6, 0.00,60.00,Thursday
141,70558339.22754753
190,0.0
2,12, 1,12, 0, 7, 0.00,60.00,Thursday
141,71068557.69742392
190,0.0
2,12, 1,12, 0, 8, 0.00,60.00,Thursday
141,71149828.66600317
190,0.0
2,12, 1,12, 0, 9, 0.00,60.00,Thursday
141,70347779.74706325
190,0.0
2,12, 1,12, 0,10, 0.00,60.00,Thursday
141,68672050.7935977
190,0.0
2,12, 1,12, 0,11, 0.00,60.00,Thursday
141,67390752.72362623
190,0.0
2,12, 1,12, 0,12, 0.00,60.00,Thursday
141,66653670.149212554
190,0.0
2,12, 1,12, 0,13, 0.00,60.00,Thursday
141,65733542.333446115
190,0.0
2,12, 1,12, 0,14, 0.00,60.00,Thursday
141,64782193.49363647
190,0.0
2,12, 1,12, 0,15, 0.00,60.00,Thursday
141,64822125.41432341
190,0.0
2,12, 1,12, 0,16, 0.00,60.00,Thursday
141,65299246.51548915
190,0.0
2,12, 1,12, 0,17, 0.00,60.00,Thursday
141,67324605.9710753
190,0.0
2,12, 1,12, 0,18, 0.00,60.00,Thursday
141,68509363.25641267
190,0.0
2,12, 1,12, 0,19, 0.00,60.00,Thursday
141,68062621.5873718
190,0.0
2,12, 1,12, 0,20, 0.00,60.00,Thursday
141,66985515.19711129
190,0.0
2,12, 1,12, 0,21, 0.00,60.00,Thursday
141,66540110.00385083
190,0.0
2,12, 1,12, 0,22, 0.00,60.00,Thursday
141,65759191.62327769
190,0.0
2,12, 1,12, 0,23, 0.00,60.00,Thursday
141,65378991.61535037
190,0.0
2,12, 1,12, 0,24, 0.00,60.00,Thursday
141,65271452.125279844
190,0.0
2,13, 1,13, 0, 1, 0.00,60.00,Friday
141,64580992.960112095
190,0.0
2,13, 1,13, 0, 2, 0.00,60.00,Friday
141,63897905.85266233
190,0.0
2,13, 1,13, 0, 3, 0.00,60.00,Friday
141,62976939.40671326
190,0.0
2,13, 1,13, 0, 4, 0.00,60.00,Friday
141,62302622.01980819
190,0.0
2,13, 1,13, 0, 5, 0.00,60.00,Friday
141,61983674.896660425
190,0.0
2,13, 1,13, 0, 6, 0.00,60.00,Friday
141,61834540.63273221
190,0.0
2,13, 1,13, 0, 7, 0.00,60.00,Friday
141,61992776.54720099
190,0.0
2,13, 1,13, 0, 8, 0.00,60.00,Friday
141,61799638.68443289
190,0.0
2,13, 1,13, 0, 9, 0.00,60.00,Friday
141,61106833.34017822
190,0.0
2,13, 1,13, 0,10, 0.00,60.00,Friday
141,62158724.78640598
190,0.0
2,13, 1,13, 0,11, 0.00,60.00,Friday
141,63401910.95478238
190,0.0
2,13, 1,13, 0,12, 0.00,60.00,Friday
141,63410872.10065747
190,0.0
2,13, 1,13, 0,13, 0.00,60.00,Friday
141,63555632.618132204
190,0.0
2,13, 1,13, 0,14, 0.00,60.00,Friday
141,64441932.45897479
190,0.0
2,13, 1,13, 0,15, 0.00,60.00,Friday
141,64992280.903810665
190,0.0
2,13, 1,13, 0,16, 0.00,60.00,Friday
141,64948969.24188913
190,0.0
2,13, 1,13, 0,17, 0.00,60.00,Friday
141,64789786.20180988
190,0.0
2,13, 1,13, 0,18, 0.00,60.00,Friday
141,64739996.94908749
190,0.0
2,13, 1,13, 0,19, 0.00,60.00,Friday
141,65590539.59969407
190,0.0
2,13, 1,13, 0,20, 0.00,60.00,Friday
141,67052089.00843196
190,0.0
2,13, 1,13, 0,21, 0.00,60.00,Friday
141,68409146.7455641
190,0.0
2,13, 1,13, 0,22, 0.00,60.00,Friday
141,69422792.00094433
190,0.0
2,13, 1,13, 0,23, 0.00,60.00,Friday
141,69479236.11719145
190,0.0
2,13, 1,13, 0,24, 0.00,60.00,Friday
141,73282049.72319663
190,0.0
2,14, 1,14, 0, 1, 0.00,60.00,Saturday
141,76084752.68507665
190,0.0
2,14, 1,14, 0, 2, 0.00,60.00,Saturday
141,75604660.42545937
190,0.0
2,14, 1,14, 0, 3, 0.00,60.00,Saturday
141,76224207.81113961
190,0.0
2,14, 1,14, 0, 4, 0.00,60.00,Saturday
141,76234150.78147674
190,0.0
2,14, 1,14, 0, 5, 0.00,60.00,Saturday
141,76458686.17938976
190,0.0
2,14, 1,14, 0, 6, 0.00,60.00,Saturday
141,79223818.51239923
190,0.0
2,14, 1,14, 0, 7, 0.00,60.00,Saturday
141,81449411.47783527
190,0.0
2,14, 1,14, 0, 8, 0.00,60.00,Saturday
141,81334767.85059571
190,0.0
2,14, 1,14, 0, 9, 0.00,60.00,Saturday
141,82876503.14006001
190,0.0
2,14, 1,14, 0,10, 0.00,60.00,Saturday
141,84804910.99493615
190,0.0
2,14, 1,14, 0,11, 0.00,60.00,Saturday
141,84847116.63455923
190,0.0
2,14, 1,14, 0,12, 0.00,60.00,Saturday
141,84525523.63589448
190,0.0
2,14, 1,14, 0,13, 0.00,60.00,Saturday
141,83468759.69065127
190,0.0
2,14, 1,14, 0,14, 0.00,60.00,Saturday
141,80807953.6176655
190,0.0
2,14, 1,14, 0,15, 0.00,60.00,Saturday
141,80485628.36133285
190,0.0
2,14, 1,14, 0,16, 0.00,60.00,Saturday
141,81019602.89375874
190,0.0
2,14, 1,14, 0,17, 0.00,60.00,Saturday
141,81992772.51108247
190,0.0
2,14, 1,14, 0,18, 0.00,60.00,Saturday
141,84056158.74668011
190,0.0
2,14, 1,14, 0,19, 0.00,60.00,Saturday
141,84233016.93290946
190,0.0
2,14, 1,14, 0,20, 0.00,60.00,Saturday
141,84827909.92311768
190,0.0
2,14, 1,14, 0,21, 0.00,60.00,Saturday
141,84864155.16789496
190,0.0
2,14, 1,14, 0,22, 0.00,60.00,Saturday
141,84633922.8476475
190,0.0
2,14, 1,14, 0,23, 0.00,60.00,Saturday
141,84630556.19695964
190,0.0
2,14, 1,14, 0,24, 0.00,60.00,Saturday
141,84912413.19023852
190,0.0
2,15, 1,15, 0, 1, 0.00,60.00,Sunday
141,84075286.76779756
190,0.0
2,15, 1,15, 0, 2, 0.00,60.00,Sunday
141,81393997.24517255
190,0.0
2,15, 1,15, 0, 3, 0.00,60.00,Sunday
141,80164036.33706272
190,0.0
2,15, 1,15, 0, 4, 0.00,60.00,Sunday
141,79229582.00324139
190,0.0
2,15, 1,15, 0, 5, 0.00,60.00,Sunday
141,77255662.75256434
190,0.0
2,15, 1,15, 0, 6, 0.00,60.00,Sunday
141,75028439.91941504
190,0.0
2,15, 1,15, 0, 7, 0.00,60.00,Sunday
141,72697014.30015312
190,0.0
2,15, 1,15, 0, 8, 0.00,60.00,Sunday
141,70936547.11301807
190,0.0
2,15, 1,15, 0, 9, 0.00,60.00,Sunday
141,69403199.46253528
190,0.0
2,15, 1,15, 0,10, 0.00,60.00,Sunday
141,68656268.86696829
190,0.0
2,15, 1,15, 0,11, 0.00,60.00,Sunday
141,69056198.12411892
190,0.0
2,15, 1,15, 0,12, 0.00,60.00,Sunday
141,71096992.8697117
190,0.0
2,15, 1,15, 0,13, 0.00,60.00,Sunday
141,72412597.35142072
190,0.0
2,15, 1,15, 0,14, 0.00,60.00,Sunday
141,72614201.44225651
190,0.0
2,15, 1,15, 0,15, 0.00,60.00,Sunday
141,72453023.20919438
190,0.0
2,15, 1,15, 0,16, 0.00,60.00,Sunday
141,71437063.98081866
190,0.0
2,15, 1,15, 0,17, 0.00,60.00,Sunday
141,70757934.02931604
190,0.0
2,15, 1,15, 0,18, 0.00,60.00,Sunday
141,70784993.18668027
190,0.0
2,15, 1,15, 0,19, 0.00,60.00,Sunday
141,71101436.33180779
190,0.0
2,15, 1,15, 0,20, 0.00,60.00,Sunday
141,71549513.60130805
190,0.0
2,15, 1,15, 0,21, 0.00,60.00,Sunday
141,72724040.58457188
190,0.0
2,15, 1,15, 0,22, 0.00,60.00,Sunday
141,73290293.61690933
190,0.0
2,15, 1,15, 0,23, 0.00,60.00,Sunday
141,73457214.0396732
190,0.0
2,15, 1,15, 0,24, 0.00,60.00,Sunday
141,73964719.99607363
190,0.0
2,16, 1,16, 0, 1, 0.00,60.00,Monday
141,75387647.34091178
190,0.0
2,16, 1,16, 0, 2, 0.00,60.00,Monday
141,76788448.44276412
190,0.0
2,16, 1,16, 0, 3, 0.00,60.00,Monday
141,77731929.963635
190,0.0
2,16, 1,16, 0, 4, 0.00,60.00,Monday
141,78474608.76690741
190,0.0
2,16, 1,16, 0, 5, 0.00,60.00,Monday
141,79373042.2166389
190,0.0
2,16, 1,16, 0, 6, 0.00,60.00,Monday
141,80117907.14748985
190,0.0
2,16, 1,16, 0, 7, 0.00,60.00,Monday
141,81431756.91152422
190,0.0
2,16, 1,16, 0, 8, 0.00,60.00,Monday
141,82652702.92079501
190,0.0
2,16, 1,16, 0, 9, 0.00,60.00,Monday
141,83228061.65140997
190,0.0
2,16, 1,16, 0,10, 0.00,60.00,Monday
141,83342633.50485733
190,0.0
2,16, 1,16, 0,11, 0.00,60.00,Monday
141,80966999.59032443
190,0.0
2,16, 1,16, 0,12, 0.00,60.00,Monday
141,78825768.57648602
190,0.0
2,16, 1,16, 0,13, 0.00,60.00,Monday
141,77015536.22635598
190,0.0
2,16, 1,16, 0,14, 0.00,60.00,Monday
141,75643195.86614117
190,0.0
2,16, 1,16, 0,15, 0.00,60.00,Monday
141,75319555.36777115
190,0.0
2,16, 1,16, 0,16, 0.00,60.00,Monday
141,75742663.54662678
190,0.0
2,16, 1,16, 0,17, 0.00,60.00,Monday
141,76993559.3890913
190,0.0
2,16, 1,16, 0,18, 0.00,60.00,Monday
141,79408222.26319636
190,0.0
2,16, 1,16, 0,19, 0.00,60.00,Monday
141,81912756.35194367
190,0.0
2,16, 1,16, 0,20, 0.00,60.00,Monday
141,83151478.8653461
190,0.0
2,16, 1,16, 0,21, 0.00,60.00,Monday
141,84107039.2845461
190,0.0
2,16, 1,16, 0,22, 0.00,60.00,Monday
141,84970418.7956029
190,0.0
2,16, 1,16, 0,23, 0.00,60.00,Monday
141,86294685.08440492
190,0.0
2,16, 1,16, 0,24, 0.00,60.00,Monday
141,86562636.60273065
190,0.0
2,17, 1,17, 0, 1, 0.00,60.00,Tuesday
141,87002056.22409266
190,0.0
2,17, 1,17, 0, 2, 0.00,60.00,Tuesday
141,88825319.52555728
190,0.0
2,17, 1,17, 0, 3, 0.00,60.00,Tuesday
141,90515388.32469076
190,0.0
2,17, 1,17, 0, 4, 0.00,60.00,Tuesday
141,92062987.41110723
190,0.0
2,17, 1,17, 0, 5, 0.00,60.00,Tuesday
141,93746586.84667853
190,0.0
2,17, 1,17, 0, 6, 0.00,60.00,Tuesday
141,95420797.69178122
190,0.0
2,17, 1,17, 0, 7, 0.00,60.00,Tuesday
141,96550986.61888257
190,0.0
2,17, 1,17, 0, 8, 0.00,60.00,Tuesday
141,97308809.19706339
190,0.0
2,17, 1,17, 0, 9, 0.00,60.00,Tuesday
141,97731851.39205743
190,0.0
2,17, 1,17, 0,10, 0.00,60.00,Tuesday
141,95229451.74801841
190,0.0
2,17, 1,17, 0,11, 0.00,60.00,Tuesday
141,91364260.85793059
190,0.0
2,17, 1,17, 0,12, 0.00,60.00,Tuesday
141,87971037.64934336
190,0.0
2,17, 1,17, 0,13, 0.00,60.00,Tuesday
141,85833237.30034724
190,0.0
2,17, 1,17, 0,14, 0.00,60.00,Tuesday
141,85008190.14342
190,0.0
2,17, 1,17, 0,15, 0.00,60.00,Tuesday
141,85022247.05366063
190,0.0
2,17, 1,17, 0,16, 0.00,60.00,Tuesday
141,86196069.06074876
190,0.0
2,17, 1,17, 0,17, 0.00,60.00,Tuesday
141,86899420.21833147
190,0.0
2,17, 1,17, 0,18, 0.00,60.00,Tuesday
141,86225208.32875615
190,0.0
2,17, 1,17, 0,19, 0.00,60.00,Tuesday
141,85401348.06505083
190,0.0
2,17, 1,17, 0,20, 0.00,60.00,Tuesday
141,85304169.8465848
190,0.0
2,17, 1,17, 0,21, 0.00,60.00,Tuesday
141,85671085.90783636
190,0.0
2,17, 1,17, 0,22, 0.00,60.00,Tuesday
141,85671968.55918133
190,0.0
2,17, 1,17, 0,23, 0.00,60.00,Tuesday
141,85771383.13056797
190,0.0
2,17, 1,17, 0,24, 0.00,60.00,Tuesday
141,86745448.58238186
190,0.0
2,18, 1,18, 0, 1, 0.00,60.00,Wednesday
141,87491748.67041653
190,0.0
2,18, 1,18, 0, 2, 0.00,60.00,Wednesday
141,88223831.9252883
190,0.0
2,18, 1,18, 0, 3, 0.00,60.00,Wednesday
141,88802407.76455808
190,0.0
2,18, 1,18, 0, 4, 0.00,60.00,Wednesday
141,89216699.29083169
190,0.0
2,18, 1,18, 0, 5, 0.00,60.00,Wednesday
141,89719269.53981349
190,0.0
2,18, 1,18, 0, 6, 0.00,60.00,Wednesday
141,90324358.64917216
190,0.0
2,18, 1,18, 0, 7, 0.00,60.00,Wednesday
141,92037907.32332526
190,0.0
2,18, 1,18, 0, 8, 0.00,60.00,Wednesday
141,92689682.23085529
190,0.0
2,18, 1,18, 0, 9, 0.00,60.00,Wednesday
141,93094573.54442224
190,0.0
2,18, 1,18, 0,10, 0.00,60.00,Wednesday
141,93148484.81814024
190,0.0
2,18, 1,18, 0,11, 0.00,60.00,Wednesday
141,91886023.18691604
190,0.0
2,18, 1,18, 0,12, 0.00,60.00,Wednesday
141,90906003.55577093
190,0.0
2,18, 1,18, 0,13, 0.00,60.00,Wednesday
141,91404141.07175297
190,0.0
2,18, 1,18, 0,14, 0.00,60.00,Wednesday
141,92390998.46507348
190,0.0
2,18, 1,18, 0,15, 0.00,60.00,Wednesday
141,92828257.83883272
190,0.0
2,18, 1,18, 0,16, 0.00,60.00,Wednesday
141,93861205.72884995
190,0.0
2,18, 1,18, 0,17, 0.00,60.00,Wednesday
141,94288383.99264751
190,0.0
2,18, 1,18, 0,18, 0.00,60.00,Wednesday
141,93684672.4413179
190,0.0
2,18, 1,18, 0,19, 0.00,60.00,Wednesday
141,93382359.39881548
190,0.0
2,18, 1,18, 0,20, 0.00,60.00,Wednesday
141,93571031.23707324
190,0.0
2,18, 1,18, 0,21, 0.00,60.00,Wednesday
141,93727161.04798695
190,0.0
2,18, 1,18, 0,22, 0.00,60.00,Wednesday
141,94123329.07183135
190,0.0
2,18, 1,18, 0,23, 0.00,60.00,Wednesday
141,94405077.7034361
190,0.0
2,18, 1,18, 0,24, 0.00,60.00,Wednesday
141,94771952.64581642
190,0.0
2,19, 1,19, 0, 1, 0.00,60.00,Thursday
141,94315086.35928228
190,0.0
2,19, 1,19, 0, 2, 0.00,60.00,Thursday
141,94507831.61764988
190,0.0
2,19, 1,19, 0, 3, 0.00,60.00,Thursday
141,95714125.10928997
190,0.0
2,19, 1,19, 0, 4, 0.00,60.00,Thursday
141,95672847.37739228
190,0.0
2,19, 1,19, 0, 5, 0.00,60.00,Thursday