Program Version,EnergyPlus, Version 24.2.0-94a887817b, YMD=2025.04.24 13:19
1,5,Environment Title[],Latitude[deg],Longitude[deg],Time Zone[],Elevation[m]
2,8,Day of Simulation[],Month[],Day of Month[],DST Indicator[1=yes 0=no],Hour[],StartMinute[],EndMinute[],DayType
3,5,Cumulative Day of Simulation[],Month[],Day of Month[],DST Indicator[1=yes 0=no],DayType  ! When Daily Report Variables Requested
4,2,Cumulative Days of Simulation[],Month[]  ! When Monthly Report Variables Requested
5,1,Cumulative Days of Simulation[] ! When Run Period Report Variables Requested
6,1,Calendar Year of Simulation[] ! When Annual Report Variables Requested
141,1,ZONE_0599100000111100 IDEAL LOADS AIR SYSTEM,Zone Ideal Loads Supply Air Total Heating Energy [J] !Hourly
190,1,ZONE_0599100000111100 IDEAL LOADS AIR SYSTEM,Zone Ideal Loads Supply Air Total Cooling Energy [J] !Hourly
End of Data Dictionary
1,RUN PERIOD 1,  51.96,   4.45,   1.00,  -4.50
2,1, 1, 1, 0, 1, 0.00,60.00,Sunday
141,44630870.47818
190,0.0
2,1, 1, 1, 0, 2, 0.00,60.00,Sunday
141,45833952.236579165
190,0.0
2,1, 1, 1, 0, 3, 0.00,60.00,Sunday
141,45884850.68911744
190,0.0
2,1, 1, 1, 0, 4, 0.00,60.00,Sunday
141,46800739.893909946
190,0.0
2,1, 1, 1, 0, 5, 0.00,60.00,Sunday
141,47479933.57295019
190,0.0
2,1, 1, 1, 0, 6, 0.00,60.00,Sunday
141,47683355.85452823
190,0.0
2,1, 1, 1, 0, 7, 0.00,60.00,Sunday
141,47953916.519596264
190,0.0
2,1, 1, 1, 0, 8, 0.00,60.00,Sunday
141,48069195.417268865
190,0.0
2,1, 1, 1, 0, 9, 0.00,60.00,Sunday
141,48211989.74721007
190,0.0
2,1, 1, 1, 0,10, 0.00,60.00,Sunday
141,48162994.58457845
190,0.0
2,1, 1, 1, 0,11, 0.00,60.00,Sunday
141,47687755.77988553
190,0.0
2,1, 1, 1, 0,12, 0.00,60.00,Sunday
141,46744652.79967148
190,0.0
2,1, 1, 1, 0,13, 0.00,60.00,Sunday
141,46280234.35595081
190,0.0
2,1, 1, 1, 0,14, 0.00,60.00,Sunday
141,45454619.99406157
190,0.0
2,1, 1, 1, 0,15, 0.00,60.00,Sunday
141,44689973.90923869
190,0.0
2,1, 1, 1, 0,16, 0.00,60.00,Sunday
141,44839754.02879101
190,0.0
2,1, 1, 1, 0,17, 0.00,60.00,Sunday
141,45068495.37531462
190,0.0
2,1, 1, 1, 0,18, 0.00,60.00,Sunday
141,44882678.08208447
190,0.0
2,1, 1, 1, 0,19, 0.00,60.00,Sunday
141,44761484.90722088
190,0.0
2,1, 1, 1, 0,20, 0.00,60.00,Sunday
141,44531445.65918509
190,0.0
2,1, 1, 1, 0,21, 0.00,60.00,Sunday
141,44325294.12927581
190,0.0
2,1, 1, 1, 0,22, 0.00,60.00,Sunday
141,44373269.61751082
190,0.0
2,1, 1, 1, 0,23, 0.00,60.00,Sunday
141,43611062.52483515
190,0.0
2,1, 1, 1, 0,24, 0.00,60.00,Sunday
141,43083002.36881237
190,0.0
2,2, 1, 2, 0, 1, 0.00,60.00,Monday
141,43258780.838026576
190,0.0
2,2, 1, 2, 0, 2, 0.00,60.00,Monday
141,42528596.80321963
190,0.0
2,2, 1, 2, 0, 3, 0.00,60.00,Monday
141,41968415.14192758
190,0.0
2,2, 1, 2, 0, 4, 0.00,60.00,Monday
141,41377332.58852444
190,0.0
2,2, 1, 2, 0, 5, 0.00,60.00,Monday
141,40017682.41729064
190,0.0
2,2, 1, 2, 0, 6, 0.00,60.00,Monday
141,39329930.99293842
190,0.0
2,2, 1, 2, 0, 7, 0.00,60.00,Monday
141,38230499.14335689
190,0.0
2,2, 1, 2, 0, 8, 0.00,60.00,Monday
141,36860770.585405506
190,0.0
2,2, 1, 2, 0, 9, 0.00,60.00,Monday
141,37059519.1324117
190,0.0
2,2, 1, 2, 0,10, 0.00,60.00,Monday
141,37753376.6299138
190,0.0
2,2, 1, 2, 0,11, 0.00,60.00,Monday
141,38114923.943232164
190,0.0
2,2, 1, 2, 0,12, 0.00,60.00,Monday
141,37315953.612848654
190,0.0
2,2, 1, 2, 0,13, 0.00,60.00,Monday
141,36889678.543585226
190,0.0
2,2, 1, 2, 0,14, 0.00,60.00,Monday
141,37422073.13968109
190,0.0
2,2, 1, 2, 0,15, 0.00,60.00,Monday
141,37668694.24079907
190,0.0
2,2, 1, 2, 0,16, 0.00,60.00,Monday
141,38295751.594127014
190,0.0
2,2, 1, 2, 0,17, 0.00,60.00,Monday
141,38956222.4702699
190,0.0
2,2, 1, 2, 0,18, 0.00,60.00,Monday
141,39176508.422038
190,0.0
2,2, 1, 2, 0,19, 0.00,60.00,Monday
141,39975472.25218906
190,0.0
2,2, 1, 2, 0,20, 0.00,60.00,Monday
141,40750438.58575375
190,0.0
2,2, 1, 2, 0,21, 0.00,60.00,Monday
141,41048322.09989525
190,0.0
2,2, 1, 2, 0,22, 0.00,60.00,Monday
141,41251505.691675164
190,0.0
2,2, 1, 2, 0,23, 0.00,60.00,Monday
141,41514930.02582551
190,0.0
2,2, 1, 2, 0,24, 0.00,60.00,Monday
141,41798281.892423175
190,0.0
2,3, 1, 3, 0, 1, 0.00,60.00,Tuesday
141,42095073.75217414
190,0.0
2,3, 1, 3, 0, 2, 0.00,60.00,Tuesday
141,42322753.75109112
190,0.0
2,3, 1, 3, 0, 3, 0.00,60.00,Tuesday
141,42508241.2480387
190,0.0
2,3, 1, 3, 0, 4, 0.00,60.00,Tuesday
141,42768224.06071424
190,0.0
2,3, 1, 3, 0, 5, 0.00,60.00,Tuesday
141,43624207.35211121
190,0.0
2,3, 1, 3, 0, 6, 0.00,60.00,Tuesday
141,44155463.45181245
190,0.0
2,3, 1, 3, 0, 7, 0.00,60.00,Tuesday
141,44389500.456853464
190,0.0
2,3, 1, 3, 0, 8, 0.00,60.00,Tuesday
141,44294469.78864044
190,0.0
2,3, 1, 3, 0, 9, 0.00,60.00,Tuesday
141,44867618.87187227
190,0.0
2,3, 1, 3, 0,10, 0.00,60.00,Tuesday
141,45115136.608305834
190,0.0
2,3, 1, 3, 0,11, 0.00,60.00,Tuesday
141,45139184.22872447
190,0.0
2,3, 1, 3, 0,12, 0.00,60.00,Tuesday
141,45280262.48759056
190,0.0
2,3, 1, 3, 0,13, 0.00,60.00,Tuesday
141,46210286.04781191
190,0.0
2,3, 1, 3, 0,14, 0.00,60.00,Tuesday
141,46745954.94528045
190,0.0
2,3, 1, 3, 0,15, 0.00,60.00,Tuesday
141,46650839.58743179
190,0.0
2,3, 1, 3, 0,16, 0.00,60.00,Tuesday
141,46550487.559072785
190,0.0
2,3, 1, 3, 0,17, 0.00,60.00,Tuesday
141,46565485.377246596
190,0.0
2,3, 1, 3, 0,18, 0.00,60.00,Tuesday
141,46609009.78847131
190,0.0
2,3, 1, 3, 0,19, 0.00,60.00,Tuesday
141,46410108.35850616
190,0.0
2,3, 1, 3, 0,20, 0.00,60.00,Tuesday
141,45618322.64664495
190,0.0
2,3, 1, 3, 0,21, 0.00,60.00,Tuesday
141,43584029.26772342
190,0.0
2,3, 1, 3, 0,22, 0.00,60.00,Tuesday
141,42542878.57370541
190,0.0
2,3, 1, 3, 0,23, 0.00,60.00,Tuesday
141,43401672.52942665
190,0.0
2,3, 1, 3, 0,24, 0.00,60.00,Tuesday
141,44809148.15551783
190,0.0
2,4, 1, 4, 0, 1, 0.00,60.00,Wednesday
141,45544875.7385559
190,0.0
2,4, 1, 4, 0, 2, 0.00,60.00,Wednesday
141,45541308.707927674
190,0.0
2,4, 1, 4, 0, 3, 0.00,60.00,Wednesday
141,45487260.01815969
190,0.0
2,4, 1, 4, 0, 4, 0.00,60.00,Wednesday
141,45872630.61308528
190,0.0
2,4, 1, 4, 0, 5, 0.00,60.00,Wednesday
141,46893777.94091474
190,0.0
2,4, 1, 4, 0, 6, 0.00,60.00,Wednesday
141,46785031.074000515
190,0.0
2,4, 1, 4, 0, 7, 0.00,60.00,Wednesday
141,46829300.29267292
190,0.0
2,4, 1, 4, 0, 8, 0.00,60.00,Wednesday
141,47238519.854085766
190,0.0
2,4, 1, 4, 0, 9, 0.00,60.00,Wednesday
141,47531650.52998943
190,0.0
2,4, 1, 4, 0,10, 0.00,60.00,Wednesday
141,47769835.70509252
190,0.0
2,4, 1, 4, 0,11, 0.00,60.00,Wednesday
141,46247356.28140792
190,0.0
2,4, 1, 4, 0,12, 0.00,60.00,Wednesday
141,43678427.7224129
190,0.0
2,4, 1, 4, 0,13, 0.00,60.00,Wednesday
141,43087827.39356115
190,0.0
2,4, 1, 4, 0,14, 0.00,60.00,Wednesday
141,43086048.204551086
190,0.0
2,4, 1, 4, 0,15, 0.00,60.00,Wednesday
141,42853076.612749875
190,0.0
2,4, 1, 4, 0,16, 0.00,60.00,Wednesday
141,43904783.77556789
190,0.0
2,4, 1, 4, 0,17, 0.00,60.00,Wednesday
141,45781722.61856362
190,0.0
2,4, 1, 4, 0,18, 0.00,60.00,Wednesday
141,47382764.068996236
190,0.0
2,4, 1, 4, 0,19, 0.00,60.00,Wednesday
141,49033899.45338109
190,0.0
2,4, 1, 4, 0,20, 0.00,60.00,Wednesday
141,49920679.34014944
190,0.0
2,4, 1, 4, 0,21, 0.00,60.00,Wednesday
141,50394643.327623114
190,0.0
2,4, 1, 4, 0,22, 0.00,60.00,Wednesday
141,51387285.74147733
190,0.0
2,4, 1, 4, 0,23, 0.00,60.00,Wednesday
141,51252128.01225297
190,0.0
2,4, 1, 4, 0,24, 0.00,60.00,Wednesday
141,50927985.367308326
190,0.0
2,5, 1, 5, 0, 1, 0.00,60.00,Thursday
141,51476865.55057846
190,0.0
2,5, 1, 5, 0, 2, 0.00,60.00,Thursday
141,51375984.65357514
190,0.0
2,5, 1, 5, 0, 3, 0.00,60.00,Thursday
141,51258789.8216815
190,0.0
2,5, 1, 5, 0, 4, 0.00,60.00,Thursday
141,51585977.468885034
190,0.0
2,5, 1, 5, 0, 5, 0.00,60.00,Thursday
141,51303734.43658348
190,0.0
2,5, 1, 5, 0, 6, 0.00,60.00,Thursday
141,51232165.67635452
190,0.0
2,5, 1, 5, 0, 7, 0.00,60.00,Thursday
141,51613988.90186831
190,0.0
2,5, 1, 5, 0, 8, 0.00,60.00,Thursday
141,51908037.32081328
190,0.0
2,5, 1, 5, 0, 9, 0.00,60.00,Thursday
141,51984530.92507918
190,0.0
2,5, 1, 5, 0,10, 0.00,60.00,Thursday
141,52448885.62738926
190,0.0
2,5, 1, 5, 0,11, 0.00,60.00,Thursday
141,52241226.24063371
190,0.0
2,5, 1, 5, 0,12, 0.00,60.00,Thursday
141,50990851.892552085
190,0.0
2,5, 1, 5, 0,13, 0.00,60.00,Thursday
141,50405322.00038082
190,0.0
2,5, 1, 5, 0,14, 0.00,60.00,Thursday
141,49290047.29377705
190,0.0
2,5, 1, 5, 0,15, 0.00,60.00,Thursday
141,48237914.35969859
190,0.0
2,5, 1, 5, 0,16, 0.00,60.00,Thursday
141,48300037.62408499
190,0.0
2,5, 1, 5, 0,17, 0.00,60.00,Thursday
141,47675914.04775215
190,0.0
2,5, 1, 5, 0,18, 0.00,60.00,Thursday
141,46861916.06343201
190,0.0
2,5, 1, 5, 0,19, 0.00,60.00,Thursday
141,46665195.948918186
190,0.0
2,5, 1, 5, 0,20, 0.00,60.00,Thursday
141,46300829.40865733
190,0.0
2,5, 1, 5, 0,21, 0.00,60.00,Thursday
141,45918070.056196734
190,0.0
2,5, 1, 5, 0,22, 0.00,60.00,Thursday
141,45733487.92121832
190,0.0
2,5, 1, 5, 0,23, 0.00,60.00,Thursday
141,45741217.95417475
190,0.0
2,5, 1, 5, 0,24, 0.00,60.00,Thursday
141,45795903.23428706
190,0.0
2,6, 1, 6, 0, 1, 0.00,60.00,Friday
141,45808196.894486494
190,0.0
2,6, 1, 6, 0, 2, 0.00,60.00,Friday
141,45828899.14552081
190,0.0
2,6, 1, 6, 0, 3, 0.00,60.00,Friday
141,46503064.804517485
190,0.0
2,6, 1, 6, 0, 4, 0.00,60.00,Friday
141,47165524.45210174
190,0.0
2,6, 1, 6, 0, 5, 0.00,60.00,Friday
141,47492553.342293926
190,0.0
2,6, 1, 6, 0, 6, 0.00,60.00,Friday
141,47926748.819713786
190,0.0
2,6, 1, 6, 0, 7, 0.00,60.00,Friday
141,48614868.554874465
190,0.0
2,6, 1, 6, 0, 8, 0.00,60.00,Friday
141,49300143.83462867
190,0.0
2,6, 1, 6, 0, 9, 0.00,60.00,Friday
141,50158273.05819115
190,0.0
2,6, 1, 6, 0,10, 0.00,60.00,Friday
141,50739782.52998712
190,0.0
2,6, 1, 6, 0,11, 0.00,60.00,Friday
141,50372829.24614398
190,0.0
2,6, 1, 6, 0,12, 0.00,60.00,Friday
141,49729194.97654528
190,0.0
2,6, 1, 6, 0,13, 0.00,60.00,Friday
141,49477187.21692436
190,0.0
2,6, 1, 6, 0,14, 0.00,60.00,Friday
141,49360992.627430156
190,0.0
2,6, 1, 6, 0,15, 0.00,60.00,Friday
141,49060157.9107079
190,0.0
2,6, 1, 6, 0,16, 0.00,60.00,Friday
141,48363898.1502136
190,0.0
2,6, 1, 6, 0,17, 0.00,60.00,Friday
141,47609083.96918675
190,0.0
2,6, 1, 6, 0,18, 0.00,60.00,Friday
141,47158918.12617797
190,0.0
2,6, 1, 6, 0,19, 0.00,60.00,Friday
141,46735217.6734724
190,0.0
2,6, 1, 6, 0,20, 0.00,60.00,Friday
141,45984183.781777665
190,0.0
2,6, 1, 6, 0,21, 0.00,60.00,Friday
141,44261064.172034696
190,0.0
2,6, 1, 6, 0,22, 0.00,60.00,Friday
141,42245263.55066408
190,0.0
2,6, 1, 6, 0,23, 0.00,60.00,Friday
141,41421482.809398964
190,0.0
2,6, 1, 6, 0,24, 0.00,60.00,Friday
141,41731929.618526444
190,0.0
2,7, 1, 7, 0, 1, 0.00,60.00,Saturday
141,43486892.41312241
190,0.0
2,7, 1, 7, 0, 2, 0.00,60.00,Saturday
141,45192302.59228066
190,0.0
2,7, 1, 7, 0, 3, 0.00,60.00,Saturday
141,44926454.75011992
190,0.0
2,7, 1, 7, 0, 4, 0.00,60.00,Saturday
141,45045273.84619357
190,0.0
2,7, 1, 7, 0, 5, 0.00,60.00,Saturday
141,46209993.30820214
190,0.0
2,7, 1, 7, 0, 6, 0.00,60.00,Saturday
141,47135518.03594872
190,0.0
2,7, 1, 7, 0, 7, 0.00,60.00,Saturday
141,47699091.75354067
190,0.0
2,7, 1, 7, 0, 8, 0.00,60.00,Saturday
141,48015082.8081077
190,0.0
2,7, 1, 7, 0, 9, 0.00,60.00,Saturday
141,47444762.1314877
190,0.0
2,7, 1, 7, 0,10, 0.00,60.00,Saturday
141,46976558.97341175
190,0.0
2,7, 1, 7, 0,11, 0.00,60.00,Saturday
141,45397042.5199607
190,0.0
2,7, 1, 7, 0,12, 0.00,60.00,Saturday
141,43769412.621688664
190,0.0
2,7, 1, 7, 0,13, 0.00,60.00,Saturday
141,42477444.725003965
190,0.0
2,7, 1, 7, 0,14, 0.00,60.00,Saturday
141,41591170.51877073
190,0.0
2,7, 1, 7, 0,15, 0.00,60.00,Saturday
141,41393876.615520194
190,0.0
2,7, 1, 7, 0,16, 0.00,60.00,Saturday
141,41340836.39969006
190,0.0
2,7, 1, 7, 0,17, 0.00,60.00,Saturday
141,41139223.35551635
190,0.0
2,7, 1, 7, 0,18, 0.00,60.00,Saturday
141,41352102.51386007
190,0.0
2,7, 1, 7, 0,19, 0.00,60.00,Saturday
141,41641279.58059612
190,0.0
2,7, 1, 7, 0,20, 0.00,60.00,Saturday
141,42061095.529581286
190,0.0
2,7, 1, 7, 0,21, 0.00,60.00,Saturday
141,42412958.58445434
190,0.0
2,7, 1, 7, 0,22, 0.00,60.00,Saturday
141,42368805.066952795
190,0.0
2,7, 1, 7, 0,23, 0.00,60.00,Saturday
141,42500037.53911628
190,0.0
2,7, 1, 7, 0,24, 0.00,60.00,Saturday
141,42578040.657108136
190,0.0
2,8, 1, 8, 0, 1, 0.00,60.00,Sunday
141,42299183.27361083
190,0.0
2,8, 1, 8, 0, 2, 0.00,60.00,Sunday
141,42021025.179164805
190,0.0
2,8, 1, 8, 0, 3, 0.00,60.00,Sunday
141,41845662.1438146
190,0.0
2,8, 1, 8, 0, 4, 0.00,60.00,Sunday
141,41437213.93469628
190,0.0
2,8, 1, 8, 0, 5, 0.00,60.00,Sunday
141,40815007.90348574
190,0.0
2,8, 1, 8, 0, 6, 0.00,60.00,Sunday
141,40351280.423100516
190,0.0
2,8, 1, 8, 0, 7, 0.00,60.00,Sunday
141,39968693.62934189
190,0.0
2,8, 1, 8, 0, 8, 0.00,60.00,Sunday
141,39580755.445611976
190,0.0
2,8, 1, 8, 0, 9, 0.00,60.00,Sunday
141,39097487.650671825
190,0.0
2,8, 1, 8, 0,10, 0.00,60.00,Sunday
141,38881517.27238431
190,0.0
2,8, 1, 8, 0,11, 0.00,60.00,Sunday
141,38651262.014797315
190,0.0
2,8, 1, 8, 0,12, 0.00,60.00,Sunday
141,38597897.58092502
190,0.0
2,8, 1, 8, 0,13, 0.00,60.00,Sunday
141,38326177.11685675
190,0.0
2,8, 1, 8, 0,14, 0.00,60.00,Sunday
141,38246755.436017096
190,0.0
2,8, 1, 8, 0,15, 0.00,60.00,Sunday
141,39119944.6318063
190,0.0
2,8, 1, 8, 0,16, 0.00,60.00,Sunday
141,39726175.46068408
190,0.0
2,8, 1, 8, 0,17, 0.00,60.00,Sunday
141,39649785.80244228
190,0.0
2,8, 1, 8, 0,18, 0.00,60.00,Sunday
141,39930385.5754547
190,0.0
2,8, 1, 8, 0,19, 0.00,60.00,Sunday
141,39753626.032481134
190,0.0
2,8, 1, 8, 0,20, 0.00,60.00,Sunday
141,39161931.83938285
190,0.0
2,8, 1, 8, 0,21, 0.00,60.00,Sunday
141,38770806.7064764
190,0.0
2,8, 1, 8, 0,22, 0.00,60.00,Sunday
141,38986418.54173298
190,0.0
2,8, 1, 8, 0,23, 0.00,60.00,Sunday
141,39199971.02348259
190,0.0
2,8, 1, 8, 0,24, 0.00,60.00,Sunday
141,39666355.079658985
190,0.0
2,9, 1, 9, 0, 1, 0.00,60.00,Monday
141,39824750.01301898
190,0.0
2,9, 1, 9, 0, 2, 0.00,60.00,Monday
141,39957515.77740561
190,0.0
2,9, 1, 9, 0, 3, 0.00,60.00,Monday
141,39961509.1810614
190,0.0
2,9, 1, 9, 0, 4, 0.00,60.00,Monday
141,39823874.54987989
190,0.0
2,9, 1, 9, 0, 5, 0.00,60.00,Monday
141,39381093.140500106
190,0.0
2,9, 1, 9, 0, 6, 0.00,60.00,Monday
141,38903889.42092148
190,0.0
2,9, 1, 9, 0, 7, 0.00,60.00,Monday
141,38540435.34845717
190,0.0
2,9, 1, 9, 0, 8, 0.00,60.00,Monday
141,38315249.001932114
190,0.0
2,9, 1, 9, 0, 9, 0.00,60.00,Monday
141,37695160.44400945
190,0.0
2,9, 1, 9, 0,10, 0.00,60.00,Monday
141,36239018.31566593
190,0.0
2,9, 1, 9, 0,11, 0.00,60.00,Monday
141,34980216.42103462
190,0.0
2,9, 1, 9, 0,12, 0.00,60.00,Monday
141,34232373.92149327
190,0.0
2,9, 1, 9, 0,13, 0.00,60.00,Monday
141,33559056.97499505
190,0.0
2,9, 1, 9, 0,14, 0.00,60.00,Monday
141,32981874.672158316
190,0.0
2,9, 1, 9, 0,15, 0.00,60.00,Monday
141,32622144.606811624
190,0.0
2,9, 1, 9, 0,16, 0.00,60.00,Monday
141,32660119.850747444
190,0.0
2,9, 1, 9, 0,17, 0.00,60.00,Monday
141,33369735.95593097
190,0.0
2,9, 1, 9, 0,18, 0.00,60.00,Monday
141,34057094.80933857
190,0.0
2,9, 1, 9, 0,19, 0.00,60.00,Monday
141,33827397.99297298
190,0.0
2,9, 1, 9, 0,20, 0.00,60.00,Monday
141,32465671.243211403
190,0.0
2,9, 1, 9, 0,21, 0.00,60.00,Monday
141,31101783.20385526
190,0.0
2,9, 1, 9, 0,22, 0.00,60.00,Monday
141,30205546.04571926
190,0.0
2,9, 1, 9, 0,23, 0.00,60.00,Monday
141,29892580.17692892
190,0.0
2,9, 1, 9, 0,24, 0.00,60.00,Monday
141,29750183.26034177
190,0.0
2,10, 1,10, 0, 1, 0.00,60.00,Tuesday
141,29827523.41365239
190,0.0
2,10, 1,10, 0, 2, 0.00,60.00,Tuesday
141,29771125.272665586
190,0.0
2,10, 1,10, 0, 3, 0.00,60.00,Tuesday
141,29518046.2687063
190,0.0
2,10, 1,10, 0, 4, 0.00,60.00,Tuesday
141,29615500.213500492
190,0.0
2,10, 1,10, 0, 5, 0.00,60.00,Tuesday
141,29486025.105418354
190,0.0
2,10, 1,10, 0, 6, 0.00,60.00,Tuesday
141,29285685.229416944
190,0.0
2,10, 1,10, 0, 7, 0.00,60.00,Tuesday
141,29125349.421265326
190,0.0
2,10, 1,10, 0, 8, 0.00,60.00,Tuesday
141,28811052.566745378
190,0.0
2,10, 1,10, 0, 9, 0.00,60.00,Tuesday
141,28465466.17469822
190,0.0
2,10, 1,10, 0,10, 0.00,60.00,Tuesday
141,28072640.951934673
190,0.0
2,10, 1,10, 0,11, 0.00,60.00,Tuesday
141,27576583.693731297
190,0.0
2,10, 1,10, 0,12, 0.00,60.00,Tuesday
141,27035402.196027294
190,0.0
2,10, 1,10, 0,13, 0.00,60.00,Tuesday
141,26864713.76501752
190,0.0
2,10, 1,10, 0,14, 0.00,60.00,Tuesday
141,28384758.757637896
190,0.0
2,10, 1,10, 0,15, 0.00,60.00,Tuesday
141,29619586.95738591
190,0.0
2,10, 1,10, 0,16, 0.00,60.00,Tuesday
141,30402725.742038134
190,0.0
2,10, 1,10, 0,17, 0.00,60.00,Tuesday
141,31284730.06935999
190,0.0
2,10, 1,10, 0,18, 0.00,60.00,Tuesday
141,32493305.723195393
190,0.0
2,10, 1,10, 0,19, 0.00,60.00,Tuesday
141,33304456.747682907
190,0.0
2,10, 1,10, 0,20, 0.00,60.00,Tuesday
141,34102555.692251205
190,0.0
2,10, 1,10, 0,21, 0.00,60.00,Tuesday
141,35274902.745364286
190,0.0
2,10, 1,10, 0,22, 0.00,60.00,Tuesday
141,36249747.58938225
190,0.0
2,10, 1,10, 0,23, 0.00,60.00,Tuesday
141,36658257.437532686
190,0.0
2,10, 1,10, 0,24, 0.00,60.00,Tuesday
141,37786262.12591154
190,0.0
2,11, 1,11, 0, 1, 0.00,60.00,Wednesday
141,38556247.80335167
190,0.0
2,11, 1,11, 0, 2, 0.00,60.00,Wednesday
141,39316052.255411364
190,0.0
2,11, 1,11, 0, 3, 0.00,60.00,Wednesday
141,40214201.28751887
190,0.0
2,11, 1,11, 0, 4, 0.00,60.00,Wednesday
141,40452736.98887837
190,0.0
2,11, 1,11, 0, 5, 0.00,60.00,Wednesday
141,40688275.975624815
190,0.0
2,11, 1,11, 0, 6, 0.00,60.00,Wednesday
141,40978728.433267355
190,0.0
2,11, 1,11, 0, 7, 0.00,60.00,Wednesday
141,41370542.412919044
190,0.0
2,11, 1,11, 0, 8, 0.00,60.00,Wednesday
141,41711608.08257993
190,0.0
2,11, 1,11, 0, 9, 0.00,60.00,Wednesday
141,41818637.352157965
190,0.0
2,11, 1,11, 0,10, 0.00,60.00,Wednesday
141,41763609.86755858
190,0.0
2,11, 1,11, 0,11, 0.00,60.00,Wednesday
141,41541513.21612004
190,0.0
2,11, 1,11, 0,12, 0.00,60.00,Wednesday
141,41050547.104693756
190,0.0
2,11, 1,11, 0,13, 0.00,60.00,Wednesday
141,40568810.80050986
190,0.0
2,11, 1,11, 0,14, 0.00,60.00,Wednesday
141,40180254.563085616
190,0.0
2,11, 1,11, 0,15, 0.00,60.00,Wednesday
141,39782372.46816357
190,0.0
2,11, 1,11, 0,16, 0.00,60.00,Wednesday
141,39344791.18659189
190,0.0
2,11, 1,11, 0,17, 0.00,60.00,Wednesday
141,38567723.82909756
190,0.0
2,11, 1,11, 0,18, 0.00,60.00,Wednesday
141,37838930.61820789
190,0.0
2,11, 1,11, 0,19, 0.00,60.00,Wednesday
141,37282384.12990351
190,0.0
2,11, 1,11, 0,20, 0.00,60.00,Wednesday
141,37000075.4460249
190,0.0
2,11, 1,11, 0,21, 0.00,60.00,Wednesday
141,36821016.553793356
190,0.0
2,11, 1,11, 0,22, 0.00,60.00,Wednesday
141,36134494.6931824
190,0.0
2,11, 1,11, 0,23, 0.00,60.00,Wednesday
141,35623053.05878058
190,0.0
2,11, 1,11, 0,24, 0.00,60.00,Wednesday
141,35617041.02663329
190,0.0
2,12, 1,12, 0, 1, 0.00,60.00,Thursday
141,35797408.12750412
190,0.0
2,12, 1,12, 0, 2, 0.00,60.00,Thursday
141,35790850.55464235
190,0.0
2,12, 1,12, 0, 3, 0.00,60.00,Thursday
141,35619596.91902223
190,0.0
2,12, 1,12, 0, 4, 0.00,60.00,Thursday
141,35610615.34652141
190,0.0
2,12, 1,12, 0, 5, 0.00,60.00,Thursday
141,35792278.42328867
190,0.0
2,12, 1,12, 0, 6, 0.00,60.00,Thursday
141,36254493.47316219
190,0.0
2,12, 1,12, 0, 7, 0.00,60.00,Thursday
141,36497880.474517666
190,0.0
2,12, 1,12, 0, 8, 0.00,60.00,Thursday
141,36547848.76666783
190,0.0
2,12, 1,12, 0, 9, 0.00,60.00,Thursday
141,36200708.58282141
190,0.0
2,12, 1,12, 0,10, 0.00,60.00,Thursday
141,35460524.86120518
190,0.0
2,12, 1,12, 0,11, 0.00,60.00,Thursday
141,34895831.27528209
190,0.0
2,12, 1,12, 0,12, 0.00,60.00,Thursday
141,34574646.83777461
190,0.0
2,12, 1,12, 0,13, 0.00,60.00,Thursday
141,34174549.32385048
190,0.0
2,12, 1,12, 0,14, 0.00,60.00,Thursday
141,33764700.83463715
190,0.0
2,12, 1,12, 0,15, 0.00,60.00,Thursday
141,33801521.61545146
190,0.0
2,12, 1,12, 0,16, 0.00,60.00,Thursday
141,34032965.4059477
190,0.0
2,12, 1,12, 0,17, 0.00,60.00,Thursday
141,34955840.521536164
190,0.0
2,12, 1,12, 0,18, 0.00,60.00,Thursday
141,35496929.329831064
190,0.0
2,12, 1,12, 0,19, 0.00,60.00,Thursday
141,35302740.52559366
190,0.0
2,12, 1,12, 0,20, 0.00,60.00,Thursday
141,34824360.77613596
190,0.0
2,12, 1,12, 0,21, 0.00,60.00,Thursday
141,34627078.06013441
190,0.0
2,12, 1,12, 0,22, 0.00,60.00,Thursday
141,34272332.71146208
190,0.0
2,12, 1,12, 0,23, 0.00,60.00,Thursday
141,34087951.022572614
190,0.0
2,12, 1,12, 0,24, 0.00,60.00,Thursday
141,34016736.50867234
190,0.0
2,13, 1,13, 0, 1, 0.00,60.00,Friday
141,33675920.15713172
190,0.0
2,13, 1,13, 0, 2, 0.00,60.00,Friday
141,33332654.325308636
190,0.0
2,13, 1,13, 0, 3, 0.00,60.00,Friday
141,32878364.88340676
190,0.0
2,13, 1,13, 0, 4, 0.00,60.00,Friday
141,32533128.991227835
190,0.0
2,13, 1,13, 0, 5, 0.00,60.00,Friday
141,32345793.639950767
190,0.0
2,13, 1,13, 0, 6, 0.00,60.00,Friday
141,32233745.166470848
190,0.0
2,13, 1,13, 0, 7, 0.00,60.00,Friday
141,32263058.94369696
190,0.0
2,13, 1,13, 0, 8, 0.00,60.00,Friday
141,32139463.72599653
190,0.0
2,13, 1,13, 0, 9, 0.00,60.00,Friday
141,31793680.70261093
190,0.0
2,13, 1,13, 0,10, 0.00,60.00,Friday
141,32234966.019430183
190,0.0
2,13, 1,13, 0,11, 0.00,60.00,Friday
141,32768528.232690442
190,0.0
2,13, 1,13, 0,12, 0.00,60.00,Friday
141,32755385.72773081
190,0.0
2,13, 1,13, 0,13, 0.00,60.00,Friday
141,32812602.115235608
190,0.0
2,13, 1,13, 0,14, 0.00,60.00,Friday
141,33212353.245190345
190,0.0
2,13, 1,13, 0,15, 0.00,60.00,Friday
141,33469746.678406253
190,0.0
2,13, 1,13, 0,16, 0.00,60.00,Friday
141,33467230.814050846
190,0.0
2,13, 1,13, 0,17, 0.00,60.00,Friday
141,33410931.48160712
190,0.0
2,13, 1,13, 0,18, 0.00,60.00,Friday
141,33391468.550349735
190,0.0
2,13, 1,13, 0,19, 0.00,60.00,Friday
141,33766368.3325701
190,0.0
2,13, 1,13, 0,20, 0.00,60.00,Friday
141,34415906.90046504
190,0.0
2,13, 1,13, 0,21, 0.00,60.00,Friday
141,35030495.765540875
190,0.0
2,13, 1,13, 0,22, 0.00,60.00,Friday
141,35514739.46226372
190,0.0
2,13, 1,13, 0,23, 0.00,60.00,Friday
141,35594436.855226845
190,0.0
2,13, 1,13, 0,24, 0.00,60.00,Friday
141,37374572.840202406
190,0.0
2,14, 1,14, 0, 1, 0.00,60.00,Saturday
141,38713325.61964598
190,0.0
2,14, 1,14, 0, 2, 0.00,60.00,Saturday
141,38575696.4524848
190,0.0
2,14, 1,14, 0, 3, 0.00,60.00,Saturday
141,38925038.27108643
190,0.0
2,14, 1,14, 0, 4, 0.00,60.00,Saturday
141,38993208.78809431
190,0.0
2,14, 1,14, 0, 5, 0.00,60.00,Saturday
141,39151377.26477882
190,0.0
2,14, 1,14, 0, 6, 0.00,60.00,Saturday
141,40451089.22279584
190,0.0
2,14, 1,14, 0, 7, 0.00,60.00,Saturday
141,41519014.93344619
190,0.0
2,14, 1,14, 0, 8, 0.00,60.00,Saturday
141,41550458.26934534
190,0.0
2,14, 1,14, 0, 9, 0.00,60.00,Saturday
141,42339503.05265537
190,0.0
2,14, 1,14, 0,10, 0.00,60.00,Saturday
141,43310273.12819529
190,0.0
2,14, 1,14, 0,11, 0.00,60.00,Saturday
141,43430722.195631385
190,0.0
2,14, 1,14, 0,12, 0.00,60.00,Saturday
141,43374502.7823376
190,0.0
2,14, 1,14, 0,13, 0.00,60.00,Saturday
141,42966046.743492275
190,0.0
2,14, 1,14, 0,14, 0.00,60.00,Saturday
141,41804854.50866713
190,0.0
2,14, 1,14, 0,15, 0.00,60.00,Saturday
141,41653111.951983064
190,0.0
2,14, 1,14, 0,16, 0.00,60.00,Saturday
141,41840678.0544909
190,0.0
2,14, 1,14, 0,17, 0.00,60.00,Saturday
141,42199392.41128944
190,0.0
2,14, 1,14, 0,18, 0.00,60.00,Saturday
141,43071229.132571734
190,0.0
2,14, 1,14, 0,19, 0.00,60.00,Saturday
141,43145778.24775755
190,0.0
2,14, 1,14, 0,20, 0.00,60.00,Saturday
141,43454466.24760696
190,0.0
2,14, 1,14, 0,21, 0.00,60.00,Saturday
141,43545404.505156085
190,0.0
2,14, 1,14, 0,22, 0.00,60.00,Saturday
141,43536154.751302846
190,0.0
2,14, 1,14, 0,23, 0.00,60.00,Saturday
141,43636767.7522956
190,0.0
2,14, 1,14, 0,24, 0.00,60.00,Saturday
141,43864236.37125217
190,0.0
2,15, 1,15, 0, 1, 0.00,60.00,Sunday
141,43581159.83206302
190,0.0
2,15, 1,15, 0, 2, 0.00,60.00,Sunday
141,42457205.05025557
190,0.0
2,15, 1,15, 0, 3, 0.00,60.00,Sunday
141,41966521.96773279
190,0.0
2,15, 1,15, 0, 4, 0.00,60.00,Sunday
141,41584751.37848887
190,0.0
2,15, 1,15, 0, 5, 0.00,60.00,Sunday
141,40709838.182584666
190,0.0
2,15, 1,15, 0, 6, 0.00,60.00,Sunday
141,39695752.95006174
190,0.0
2,15, 1,15, 0, 7, 0.00,60.00,Sunday
141,38612478.067479834
190,0.0
2,15, 1,15, 0, 8, 0.00,60.00,Sunday
141,37766482.39068883
190,0.0
2,15, 1,15, 0, 9, 0.00,60.00,Sunday
141,37005808.534653254
190,0.0
2,15, 1,15, 0,10, 0.00,60.00,Sunday
141,36583840.475905456
190,0.0
2,15, 1,15, 0,11, 0.00,60.00,Sunday
141,36665000.09906549
190,0.0
2,15, 1,15, 0,12, 0.00,60.00,Sunday
141,37474166.141070485
190,0.0
2,15, 1,15, 0,13, 0.00,60.00,Sunday
141,37955128.53359731
190,0.0
2,15, 1,15, 0,14, 0.00,60.00,Sunday
141,37946803.499754004
190,0.0
2,15, 1,15, 0,15, 0.00,60.00,Sunday
141,37797057.19267202
190,0.0
2,15, 1,15, 0,16, 0.00,60.00,Sunday
141,37286507.43513738
190,0.0
2,15, 1,15, 0,17, 0.00,60.00,Sunday
141,36946656.714133605
190,0.0
2,15, 1,15, 0,18, 0.00,60.00,Sunday
141,36934310.79460166
190,0.0
2,15, 1,15, 0,19, 0.00,60.00,Sunday
141,37052782.095868155
190,0.0
2,15, 1,15, 0,20, 0.00,60.00,Sunday
141,37230772.32692223
190,0.0
2,15, 1,15, 0,21, 0.00,60.00,Sunday
141,37744028.72925467
190,0.0
2,15, 1,15, 0,22, 0.00,60.00,Sunday
141,37998453.623687625
190,0.0
2,15, 1,15, 0,23, 0.00,60.00,Sunday
141,38089751.512047134
190,0.0
2,15, 1,15, 0,24, 0.00,60.00,Sunday
141,38348333.707598016
190,0.0
2,16, 1,16, 0, 1, 0.00,60.00,Monday
141,39030118.45917573
190,0.0
2,16, 1,16, 0, 2, 0.00,60.00,Monday
141,39709753.55563466
190,0.0
2,16, 1,16, 0, 3, 0.00,60.00,Monday
141,40188063.28845161
190,0.0
2,16, 1,16, 0, 4, 0.00,60.00,Monday
141,40572429.17428226
190,0.0
2,16, 1,16, 0, 5, 0.00,60.00,Monday
141,41017670.616398215
190,0.0
2,16, 1,16, 0, 6, 0.00,60.00,Monday
141,41387090.09596723
190,0.0
2,16, 1,16, 0, 7, 0.00,60.00,Monday
141,42008000.67648455
190,0.0
2,16, 1,16, 0, 8, 0.00,60.00,Monday
141,42585364.72635752
190,0.0
2,16, 1,16, 0, 9, 0.00,60.00,Monday
141,42872835.25388559
190,0.0
2,16, 1,16, 0,10, 0.00,60.00,Monday
141,42955049.549860336
190,0.0
2,16, 1,16, 0,11, 0.00,60.00,Monday
141,41920482.35672219
190,0.0
2,16, 1,16, 0,12, 0.00,60.00,Monday
141,40983364.54306284
190,0.0
2,16, 1,16, 0,13, 0.00,60.00,Monday
141,40163682.88325203
190,0.0
2,16, 1,16, 0,14, 0.00,60.00,Monday
141,39502739.76258642
190,0.0
2,16, 1,16, 0,15, 0.00,60.00,Monday
141,39308438.35035118
190,0.0
2,16, 1,16, 0,16, 0.00,60.00,Monday
141,39467438.94166322
190,0.0
2,16, 1,16, 0,17, 0.00,60.00,Monday
141,40016963.45706009
190,0.0
2,16, 1,16, 0,18, 0.00,60.00,Monday
141,41097415.91247204
190,0.0
2,16, 1,16, 0,19, 0.00,60.00,Monday
141,42212530.57864064
190,0.0
2,16, 1,16, 0,20, 0.00,60.00,Monday
141,42755030.733239084
190,0.0
2,16, 1,16, 0,21, 0.00,60.00,Monday
141,43173674.99307153
190,0.0
2,16, 1,16, 0,22, 0.00,60.00,Monday
141,43556970.17352317
190,0.0
2,16, 1,16, 0,23, 0.00,60.00,Monday
141,44151726.22922237
190,0.0
2,16, 1,16, 0,24, 0.00,60.00,Monday
141,44275924.97818555
190,0.0
2,17, 1,17, 0, 1, 0.00,60.00,Tuesday
141,44489361.06204968
190,0.0
2,17, 1,17, 0, 2, 0.00,60.00,Tuesday
141,45349150.691847935
190,0.0
2,17, 1,17, 0, 3, 0.00,60.00,Tuesday
141,46172207.12873009
190,0.0
2,17, 1,17, 0, 4, 0.00,60.00,Tuesday
141,46943113.398790956
190,0.0
2,17, 1,17, 0, 5, 0.00,60.00,Tuesday
141,47778427.16624
190,0.0
2,17, 1,17, 0, 6, 0.00,60.00,Tuesday
141,48610313.63387399
190,0.0
2,17, 1,17, 0, 7, 0.00,60.00,Tuesday
141,49198988.49142481
190,0.0
2,17, 1,17, 0, 8, 0.00,60.00,Tuesday
141,49622259.24730658
190,0.0
2,17, 1,17, 0, 9, 0.00,60.00,Tuesday
141,49897235.708044045
190,0.0
2,17, 1,17, 0,10, 0.00,60.00,Tuesday
141,48859849.94291455
190,0.0
2,17, 1,17, 0,11, 0.00,60.00,Tuesday
141,47209235.350677
190,0.0
2,17, 1,17, 0,12, 0.00,60.00,Tuesday
141,45754726.7894906
190,0.0
2,17, 1,17, 0,13, 0.00,60.00,Tuesday
141,44810071.97640795
190,0.0
2,17, 1,17, 0,14, 0.00,60.00,Tuesday
141,44356627.39961558
190,0.0
2,17, 1,17, 0,15, 0.00,60.00,Tuesday
141,44158900.95648238
190,0.0
2,17, 1,17, 0,16, 0.00,60.00,Tuesday
141,44382046.16835603
190,0.0
2,17, 1,17, 0,17, 0.00,60.00,Tuesday
141,44349556.47926701
190,0.0
2,17, 1,17, 0,18, 0.00,60.00,Tuesday
141,43714274.805394955
190,0.0
2,17, 1,17, 0,19, 0.00,60.00,Tuesday
141,43075687.71354266
190,0.0
2,17, 1,17, 0,20, 0.00,60.00,Tuesday
141,42849962.426656514
190,0.0
2,17, 1,17, 0,21, 0.00,60.00,Tuesday
141,42915150.46445228
190,0.0
2,17, 1,17, 0,22, 0.00,60.00,Tuesday
141,42881899.657434605
190,0.0
2,17, 1,17, 0,23, 0.00,60.00,Tuesday
141,42940800.73085223
190,0.0
2,17, 1,17, 0,24, 0.00,60.00,Tuesday
141,43426586.144895084
190,0.0
2,18, 1,18, 0, 1, 0.00,60.00,Wednesday
141,43838894.83659397
190,0.0
2,18, 1,18, 0, 2, 0.00,60.00,Wednesday
141,44275774.45507253
190,0.0
2,18, 1,18, 0, 3, 0.00,60.00,Wednesday
141,44669210.126593314
190,0.0
2,18, 1,18, 0, 4, 0.00,60.00,Wednesday
141,44996382.876485035
190,0.0
2,18, 1,18, 0, 5, 0.00,60.00,Wednesday
141,45356219.04806937
190,0.0
2,18, 1,18, 0, 6, 0.00,60.00,Wednesday
141,45749100.103068486
190,0.0
2,18, 1,18, 0, 7, 0.00,60.00,Wednesday
141,46625672.3701361
190,0.0
2,18, 1,18, 0, 8, 0.00,60.00,Wednesday
141,47012653.09154917
190,0.0
2,18, 1,18, 0, 9, 0.00,60.00,Wednesday
141,47276074.988876104
190,0.0
2,18, 1,18, 0,10, 0.00,60.00,Wednesday
141,47371846.722214766
190,0.0
2,18, 1,18, 0,11, 0.00,60.00,Wednesday
141,46868020.2611331
190,0.0
2,18, 1,18, 0,12, 0.00,60.00,Wednesday
141,46480482.82077605
190,0.0
2,18, 1,18, 0,13, 0.00,60.00,Wednesday
141,46741954.14388389
190,0.0
2,18, 1,18, 0,14, 0.00,60.00,Wednesday
141,47204420.464353904
190,0.0
2,18, 1,18, 0,15, 0.00,60.00,Wednesday
141,47402451.49268916
190,0.0
2,18, 1,18, 0,16, 0.00,60.00,Wednesday
141,47856454.81443776
190,0.0
2,18, 1,18, 0,17, 0.00,60.00,Wednesday
141,48034981.70230822
190,0.0
2,18, 1,18, 0,18, 0.00,60.00,Wednesday
141,47754997.273662284
190,0.0
2,18, 1,18, 0,19, 0.00,60.00,Wednesday
141,47621426.666733585
190,0.0
2,18, 1,18, 0,20, 0.00,60.00,Wednesday
141,47718417.19711442
190,0.0
2,18, 1,18, 0,21, 0.00,60.00,Wednesday
141,47805863.84541416
190,0.0
2,18, 1,18, 0,22, 0.00,60.00,Wednesday
141,48002087.13186951
190,0.0
2,18, 1,18, 0,23, 0.00,60.00,Wednesday
141,48145815.02160123
190,0.0
2,18, 1,18, 0,24, 0.00,60.00,Wednesday
141,48325296.41009696
190,0.0
2,19, 1,19, 0, 1, 0.00,60.00,Thursday
141,48133195.76620028
190,0.0
2,19, 1,19, 0, 2, 0.00,60.00,Thursday
141,48231302.377136566
190,0.0
2,19, 1,19, 0, 3, 0.00,60.00,Thursday