Program Version,EnergyPlus, Version 24.2.0-94a887817b, YMD=2025.04.24 13:21
1,5,Environment Title[],Latitude[deg],Longitude[deg],Time Zone[],Elevation[m]
2,8,Day of Simulation[],Month[],Day of Month[],DST Indicator[1=yes 0=no],Hour[],StartMinute[],EndMinute[],DayType
3,5,Cumulative Day of Simulation[],Month[],Day of Month[],DST Indicator[1=yes 0=no],DayType  ! When Daily Report Variables Requested
4,2,Cumulative Days of Simulation[],Month[]  ! When Monthly Report Variables Requested
5,1,Cumulative Days of Simulation[] ! When Run Period Report Variables Requested
6,1,Calendar Year of Simulation[] ! When Annual Report Variables Requested
141,1,ZONE_0599100000669312 IDEAL LOADS AIR SYSTEM,Zone Ideal Loads Supply Air Total Heating Energy [J] !Hourly
190,1,ZONE_0599100000669312 IDEAL LOADS AIR SYSTEM,Zone Ideal Loads Supply Air Total Cooling Energy [J] !Hourly
End of Data Dictionary
1,RUN PERIOD 1,  51.96,   4.45,   1.00,  -4.50
2,1, 1, 1, 0, 1, 0.00,60.00,Sunday
141,91027225.40559259
190,0.0
2,1, 1, 1, 0, 2, 0.00,60.00,Sunday
141,93641277.67359088
190,0.0
2,1, 1, 1, 0, 3, 0.00,60.00,Sunday
141,93714622.7613767
190,0.0
2,1, 1, 1, 0, 4, 0.00,60.00,Sunday
141,95689565.17453489
190,0.0
2,1, 1, 1, 0, 5, 0.00,60.00,Sunday
141,97130276.55882168
190,0.0
2,1, 1, 1, 0, 6, 0.00,60.00,Sunday
141,97509100.26059219
190,0.0
2,1, 1, 1, 0, 7, 0.00,60.00,Sunday
141,98026027.26269244
190,0.0
2,1, 1, 1, 0, 8, 0.00,60.00,Sunday
141,98193813.4336741
190,0.0
2,1, 1, 1, 0, 9, 0.00,60.00,Sunday
141,98415588.54315132
190,0.0
2,1, 1, 1, 0,10, 0.00,60.00,Sunday
141,98210620.95235913
190,0.0
2,1, 1, 1, 0,11, 0.00,60.00,Sunday
141,97063498.12097189
190,0.0
2,1, 1, 1, 0,12, 0.00,60.00,Sunday
141,94888655.6498902
190,0.0
2,1, 1, 1, 0,13, 0.00,60.00,Sunday
141,93799017.79555003
190,0.0
2,1, 1, 1, 0,14, 0.00,60.00,Sunday
141,91973911.5020799
190,0.0
2,1, 1, 1, 0,15, 0.00,60.00,Sunday
141,90369027.76399913
190,0.0
2,1, 1, 1, 0,16, 0.00,60.00,Sunday
141,90858831.28054345
190,0.0
2,1, 1, 1, 0,17, 0.00,60.00,Sunday
141,91559353.4947585
190,0.0
2,1, 1, 1, 0,18, 0.00,60.00,Sunday
141,91334769.27028558
190,0.0
2,1, 1, 1, 0,19, 0.00,60.00,Sunday
141,91211374.54543543
190,0.0
2,1, 1, 1, 0,20, 0.00,60.00,Sunday
141,90796145.02795935
190,0.0
2,1, 1, 1, 0,21, 0.00,60.00,Sunday
141,90386388.14329328
190,0.0
2,1, 1, 1, 0,22, 0.00,60.00,Sunday
141,90502046.8125327
190,0.0
2,1, 1, 1, 0,23, 0.00,60.00,Sunday
141,88806126.25090829
190,0.0
2,1, 1, 1, 0,24, 0.00,60.00,Sunday
141,87611476.35872594
190,0.0
2,2, 1, 2, 0, 1, 0.00,60.00,Monday
141,87962472.9332707
190,0.0
2,2, 1, 2, 0, 2, 0.00,60.00,Monday
141,86315396.65252668
190,0.0
2,2, 1, 2, 0, 3, 0.00,60.00,Monday
141,85047886.87375025
190,0.0
2,2, 1, 2, 0, 4, 0.00,60.00,Monday
141,83720860.76671273
190,0.0
2,2, 1, 2, 0, 5, 0.00,60.00,Monday
141,80711550.04233988
190,0.0
2,2, 1, 2, 0, 6, 0.00,60.00,Monday
141,79199673.24977542
190,0.0
2,2, 1, 2, 0, 7, 0.00,60.00,Monday
141,76797313.07927407
190,0.0
2,2, 1, 2, 0, 8, 0.00,60.00,Monday
141,73817675.83187896
190,0.0
2,2, 1, 2, 0, 9, 0.00,60.00,Monday
141,74316662.03361438
190,0.0
2,2, 1, 2, 0,10, 0.00,60.00,Monday
141,75925542.4323447
190,0.0
2,2, 1, 2, 0,11, 0.00,60.00,Monday
141,76814808.49560791
190,0.0
2,2, 1, 2, 0,12, 0.00,60.00,Monday
141,75143621.4204078
190,0.0
2,2, 1, 2, 0,13, 0.00,60.00,Monday
141,74270717.33636115
190,0.0
2,2, 1, 2, 0,14, 0.00,60.00,Monday
141,75478207.7232568
190,0.0
2,2, 1, 2, 0,15, 0.00,60.00,Monday
141,76029142.93769424
190,0.0
2,2, 1, 2, 0,16, 0.00,60.00,Monday
141,77401348.83660893
190,0.0
2,2, 1, 2, 0,17, 0.00,60.00,Monday
141,78830708.09903987
190,0.0
2,2, 1, 2, 0,18, 0.00,60.00,Monday
141,79274359.62433012
190,0.0
2,2, 1, 2, 0,19, 0.00,60.00,Monday
141,80980588.87010343
190,0.0
2,2, 1, 2, 0,20, 0.00,60.00,Monday
141,82622083.33170073
190,0.0
2,2, 1, 2, 0,21, 0.00,60.00,Monday
141,83201517.50736052
190,0.0
2,2, 1, 2, 0,22, 0.00,60.00,Monday
141,83563689.31121312
190,0.0
2,2, 1, 2, 0,23, 0.00,60.00,Monday
141,84050825.0158999
190,0.0
2,2, 1, 2, 0,24, 0.00,60.00,Monday
141,84579002.08147992
190,0.0
2,3, 1, 3, 0, 1, 0.00,60.00,Tuesday
141,85139578.71423788
190,0.0
2,3, 1, 3, 0, 2, 0.00,60.00,Tuesday
141,85552514.42712699
190,0.0
2,3, 1, 3, 0, 3, 0.00,60.00,Tuesday
141,85880311.23249693
190,0.0
2,3, 1, 3, 0, 4, 0.00,60.00,Tuesday
141,86388628.1552621
190,0.0
2,3, 1, 3, 0, 5, 0.00,60.00,Tuesday
141,88231186.00942494
190,0.0
2,3, 1, 3, 0, 6, 0.00,60.00,Tuesday
141,89376677.84243712
190,0.0
2,3, 1, 3, 0, 7, 0.00,60.00,Tuesday
141,89881204.10685462
190,0.0
2,3, 1, 3, 0, 8, 0.00,60.00,Tuesday
141,89670207.81829901
190,0.0
2,3, 1, 3, 0, 9, 0.00,60.00,Tuesday
141,90939486.3118419
190,0.0
2,3, 1, 3, 0,10, 0.00,60.00,Tuesday
141,91494937.33286521
190,0.0
2,3, 1, 3, 0,11, 0.00,60.00,Tuesday
141,91560351.82318267
190,0.0
2,3, 1, 3, 0,12, 0.00,60.00,Tuesday
141,91884413.84878862
190,0.0
2,3, 1, 3, 0,13, 0.00,60.00,Tuesday
141,93939556.09903353
190,0.0
2,3, 1, 3, 0,14, 0.00,60.00,Tuesday
141,95115128.6865771
190,0.0
2,3, 1, 3, 0,15, 0.00,60.00,Tuesday
141,94900614.27188188
190,0.0
2,3, 1, 3, 0,16, 0.00,60.00,Tuesday
141,94682512.80802186
190,0.0
2,3, 1, 3, 0,17, 0.00,60.00,Tuesday
141,94727189.94633377
190,0.0
2,3, 1, 3, 0,18, 0.00,60.00,Tuesday
141,94841367.65654081
190,0.0
2,3, 1, 3, 0,19, 0.00,60.00,Tuesday
141,94425487.14682516
190,0.0
2,3, 1, 3, 0,20, 0.00,60.00,Tuesday
141,92699728.67988099
190,0.0
2,3, 1, 3, 0,21, 0.00,60.00,Tuesday
141,88223939.74424231
190,0.0
2,3, 1, 3, 0,22, 0.00,60.00,Tuesday
141,85915625.51998821
190,0.0
2,3, 1, 3, 0,23, 0.00,60.00,Tuesday
141,87777968.76772769
190,0.0
2,3, 1, 3, 0,24, 0.00,60.00,Tuesday
141,90848176.27029645
190,0.0
2,4, 1, 4, 0, 1, 0.00,60.00,Wednesday
141,92441959.7843051
190,0.0
2,4, 1, 4, 0, 2, 0.00,60.00,Wednesday
141,92398746.04961772
190,0.0
2,4, 1, 4, 0, 3, 0.00,60.00,Wednesday
141,92227468.05889432
190,0.0
2,4, 1, 4, 0, 4, 0.00,60.00,Wednesday
141,93016040.70199026
190,0.0
2,4, 1, 4, 0, 5, 0.00,60.00,Wednesday
141,95208648.63499554
190,0.0
2,4, 1, 4, 0, 6, 0.00,60.00,Wednesday
141,94917606.16544503
190,0.0
2,4, 1, 4, 0, 7, 0.00,60.00,Wednesday
141,94974764.38322352
190,0.0
2,4, 1, 4, 0, 8, 0.00,60.00,Wednesday
141,95845250.46226156
190,0.0
2,4, 1, 4, 0, 9, 0.00,60.00,Wednesday
141,96467259.66816562
190,0.0
2,4, 1, 4, 0,10, 0.00,60.00,Wednesday
141,96970053.98205306
190,0.0
2,4, 1, 4, 0,11, 0.00,60.00,Wednesday
141,93582577.49498053
190,0.0
2,4, 1, 4, 0,12, 0.00,60.00,Wednesday
141,87872660.8525005
190,0.0
2,4, 1, 4, 0,13, 0.00,60.00,Wednesday
141,86518904.1895896
190,0.0
2,4, 1, 4, 0,14, 0.00,60.00,Wednesday
141,86477626.43871257
190,0.0
2,4, 1, 4, 0,15, 0.00,60.00,Wednesday
141,85954028.33170025
190,0.0
2,4, 1, 4, 0,16, 0.00,60.00,Wednesday
141,88290729.78415385
190,0.0
2,4, 1, 4, 0,17, 0.00,60.00,Wednesday
141,92462696.94634864
190,0.0
2,4, 1, 4, 0,18, 0.00,60.00,Wednesday
141,96030921.78084481
190,0.0
2,4, 1, 4, 0,19, 0.00,60.00,Wednesday
141,99700960.36507605
190,0.0
2,4, 1, 4, 0,20, 0.00,60.00,Wednesday
141,101661815.23295012
190,0.0
2,4, 1, 4, 0,21, 0.00,60.00,Wednesday
141,102678959.34057719
190,0.0
2,4, 1, 4, 0,22, 0.00,60.00,Wednesday
141,104804808.7713267
190,0.0
2,4, 1, 4, 0,23, 0.00,60.00,Wednesday
141,104412423.49671726
190,0.0
2,4, 1, 4, 0,24, 0.00,60.00,Wednesday
141,103579270.39449966
190,0.0
2,5, 1, 5, 0, 1, 0.00,60.00,Thursday
141,104658589.09609844
190,0.0
2,5, 1, 5, 0, 2, 0.00,60.00,Thursday
141,104305184.69740608
190,0.0
2,5, 1, 5, 0, 3, 0.00,60.00,Thursday
141,103927341.15811868
190,0.0
2,5, 1, 5, 0, 4, 0.00,60.00,Thursday
141,104547749.08656277
190,0.0
2,5, 1, 5, 0, 5, 0.00,60.00,Thursday
141,103845482.79309918
190,0.0
2,5, 1, 5, 0, 6, 0.00,60.00,Thursday
141,103631328.30690333
190,0.0
2,5, 1, 5, 0, 7, 0.00,60.00,Thursday
141,104439121.69554558
190,0.0
2,5, 1, 5, 0, 8, 0.00,60.00,Thursday
141,105072305.47030137
190,0.0
2,5, 1, 5, 0, 9, 0.00,60.00,Thursday
141,105241276.22240704
190,0.0
2,5, 1, 5, 0,10, 0.00,60.00,Thursday
141,106276754.30723467
190,0.0
2,5, 1, 5, 0,11, 0.00,60.00,Thursday
141,105835625.05506766
190,0.0
2,5, 1, 5, 0,12, 0.00,60.00,Thursday
141,103098925.72279836
190,0.0
2,5, 1, 5, 0,13, 0.00,60.00,Thursday
141,101848066.19915026
190,0.0
2,5, 1, 5, 0,14, 0.00,60.00,Thursday
141,99472937.38400733
190,0.0
2,5, 1, 5, 0,15, 0.00,60.00,Thursday
141,97289795.67103471
190,0.0
2,5, 1, 5, 0,16, 0.00,60.00,Thursday
141,97606090.66544238
190,0.0
2,5, 1, 5, 0,17, 0.00,60.00,Thursday
141,96426297.60429478
190,0.0
2,5, 1, 5, 0,18, 0.00,60.00,Thursday
141,94818793.36460255
190,0.0
2,5, 1, 5, 0,19, 0.00,60.00,Thursday
141,94547017.03694062
190,0.0
2,5, 1, 5, 0,20, 0.00,60.00,Thursday
141,93875391.07606122
190,0.0
2,5, 1, 5, 0,21, 0.00,60.00,Thursday
141,93136345.94841972
190,0.0
2,5, 1, 5, 0,22, 0.00,60.00,Thursday
141,92812856.24210015
190,0.0
2,5, 1, 5, 0,23, 0.00,60.00,Thursday
141,92894650.27633324
190,0.0
2,5, 1, 5, 0,24, 0.00,60.00,Thursday
141,93067500.13488261
190,0.0
2,6, 1, 6, 0, 1, 0.00,60.00,Friday
141,93138248.61924607
190,0.0
2,6, 1, 6, 0, 2, 0.00,60.00,Friday
141,93222001.23807952
190,0.0
2,6, 1, 6, 0, 3, 0.00,60.00,Friday
141,94742824.59147248
190,0.0
2,6, 1, 6, 0, 4, 0.00,60.00,Friday
141,96233482.83744165
190,0.0
2,6, 1, 6, 0, 5, 0.00,60.00,Friday
141,96978559.64652684
190,0.0
2,6, 1, 6, 0, 6, 0.00,60.00,Friday
141,97951925.58459477
190,0.0
2,6, 1, 6, 0, 7, 0.00,60.00,Friday
141,99474597.2006906
190,0.0
2,6, 1, 6, 0, 8, 0.00,60.00,Friday
141,100978511.69421108
190,0.0
2,6, 1, 6, 0, 9, 0.00,60.00,Friday
141,102849306.25195001
190,0.0
2,6, 1, 6, 0,10, 0.00,60.00,Friday
141,104093588.49841225
190,0.0
2,6, 1, 6, 0,11, 0.00,60.00,Friday
141,103227056.49474841
190,0.0
2,6, 1, 6, 0,12, 0.00,60.00,Friday
141,101735191.23753735
190,0.0
2,6, 1, 6, 0,13, 0.00,60.00,Friday
141,101113917.6734582
190,0.0
2,6, 1, 6, 0,14, 0.00,60.00,Friday
141,100830011.13460658
190,0.0
2,6, 1, 6, 0,15, 0.00,60.00,Friday
141,100197837.54487514
190,0.0
2,6, 1, 6, 0,16, 0.00,60.00,Friday
141,98748536.79703766
190,0.0
2,6, 1, 6, 0,17, 0.00,60.00,Friday
141,97198278.98343101
190,0.0
2,6, 1, 6, 0,18, 0.00,60.00,Friday
141,96316777.09522602
190,0.0
2,6, 1, 6, 0,19, 0.00,60.00,Friday
141,95463884.99369855
190,0.0
2,6, 1, 6, 0,20, 0.00,60.00,Friday
141,93845260.67954384
190,0.0
2,6, 1, 6, 0,21, 0.00,60.00,Friday
141,90030545.48244844
190,0.0
2,6, 1, 6, 0,22, 0.00,60.00,Friday
141,85538522.95564044
190,0.0
2,6, 1, 6, 0,23, 0.00,60.00,Friday
141,83671524.27478836
190,0.0
2,6, 1, 6, 0,24, 0.00,60.00,Friday
141,84318698.86103079
190,0.0
2,7, 1, 7, 0, 1, 0.00,60.00,Saturday
141,88168754.91849963
190,0.0
2,7, 1, 7, 0, 2, 0.00,60.00,Saturday
141,91922854.46047038
190,0.0
2,7, 1, 7, 0, 3, 0.00,60.00,Saturday
141,91334183.59905037
190,0.0
2,7, 1, 7, 0, 4, 0.00,60.00,Saturday
141,91590610.13301641
190,0.0
2,7, 1, 7, 0, 5, 0.00,60.00,Saturday
141,94146774.10828483
190,0.0
2,7, 1, 7, 0, 6, 0.00,60.00,Saturday
141,96168680.55333555
190,0.0
2,7, 1, 7, 0, 7, 0.00,60.00,Saturday
141,97385299.51815923
190,0.0
2,7, 1, 7, 0, 8, 0.00,60.00,Saturday
141,98046510.01301771
190,0.0
2,7, 1, 7, 0, 9, 0.00,60.00,Saturday
141,96741221.04247066
190,0.0
2,7, 1, 7, 0,10, 0.00,60.00,Saturday
141,95649037.11799803
190,0.0
2,7, 1, 7, 0,11, 0.00,60.00,Saturday
141,92095549.41242482
190,0.0
2,7, 1, 7, 0,12, 0.00,60.00,Saturday
141,88434282.35905086
190,0.0
2,7, 1, 7, 0,13, 0.00,60.00,Saturday
141,85548548.59311298
190,0.0
2,7, 1, 7, 0,14, 0.00,60.00,Saturday
141,83649561.75076592
190,0.0
2,7, 1, 7, 0,15, 0.00,60.00,Saturday
141,83390168.71179253
190,0.0
2,7, 1, 7, 0,16, 0.00,60.00,Saturday
141,83549932.42814603
190,0.0
2,7, 1, 7, 0,17, 0.00,60.00,Saturday
141,83428586.40375721
190,0.0
2,7, 1, 7, 0,18, 0.00,60.00,Saturday
141,84209672.85336818
190,0.0
2,7, 1, 7, 0,19, 0.00,60.00,Saturday
141,85104302.33850129
190,0.0
2,7, 1, 7, 0,20, 0.00,60.00,Saturday
141,86211916.35137221
190,0.0
2,7, 1, 7, 0,21, 0.00,60.00,Saturday
141,87095545.4957944
190,0.0
2,7, 1, 7, 0,22, 0.00,60.00,Saturday
141,87042924.8479435
190,0.0
2,7, 1, 7, 0,23, 0.00,60.00,Saturday
141,87328509.90840484
190,0.0
2,7, 1, 7, 0,24, 0.00,60.00,Saturday
141,87453103.29484925
190,0.0
2,8, 1, 8, 0, 1, 0.00,60.00,Sunday
141,86746112.95335448
190,0.0
2,8, 1, 8, 0, 2, 0.00,60.00,Sunday
141,86004516.94507505
190,0.0
2,8, 1, 8, 0, 3, 0.00,60.00,Sunday
141,85470634.66404158
190,0.0
2,8, 1, 8, 0, 4, 0.00,60.00,Sunday
141,84421655.0289189
190,0.0
2,8, 1, 8, 0, 5, 0.00,60.00,Sunday
141,82918043.86889961
190,0.0
2,8, 1, 8, 0, 6, 0.00,60.00,Sunday
141,81792604.99500638
190,0.0
2,8, 1, 8, 0, 7, 0.00,60.00,Sunday
141,80879313.79144071
190,0.0
2,8, 1, 8, 0, 8, 0.00,60.00,Sunday
141,79985331.69149731
190,0.0
2,8, 1, 8, 0, 9, 0.00,60.00,Sunday
141,78909116.52273494
190,0.0
2,8, 1, 8, 0,10, 0.00,60.00,Sunday
141,78446238.05116571
190,0.0
2,8, 1, 8, 0,11, 0.00,60.00,Sunday
141,77971343.08328445
190,0.0
2,8, 1, 8, 0,12, 0.00,60.00,Sunday
141,77902470.71507615
190,0.0
2,8, 1, 8, 0,13, 0.00,60.00,Sunday
141,77364166.24512193
190,0.0
2,8, 1, 8, 0,14, 0.00,60.00,Sunday
141,77255921.07436703
190,0.0
2,8, 1, 8, 0,15, 0.00,60.00,Sunday
141,79245310.08128822
190,0.0
2,8, 1, 8, 0,16, 0.00,60.00,Sunday
141,80637126.59251513
190,0.0
2,8, 1, 8, 0,17, 0.00,60.00,Sunday
141,80508959.83441883
190,0.0
2,8, 1, 8, 0,18, 0.00,60.00,Sunday
141,81147818.18335341
190,0.0
2,8, 1, 8, 0,19, 0.00,60.00,Sunday
141,80756137.6256496
190,0.0
2,8, 1, 8, 0,20, 0.00,60.00,Sunday
141,79435105.84784923
190,0.0
2,8, 1, 8, 0,21, 0.00,60.00,Sunday
141,78549119.52613212
190,0.0
2,8, 1, 8, 0,22, 0.00,60.00,Sunday
141,78995417.16143021
190,0.0
2,8, 1, 8, 0,23, 0.00,60.00,Sunday
141,79435591.74314472
190,0.0
2,8, 1, 8, 0,24, 0.00,60.00,Sunday
141,80435087.92163312
190,0.0
2,9, 1, 9, 0, 1, 0.00,60.00,Monday
141,80756487.59896095
190,0.0
2,9, 1, 9, 0, 2, 0.00,60.00,Monday
141,81020521.32504693
190,0.0
2,9, 1, 9, 0, 3, 0.00,60.00,Monday
141,80997912.52881421
190,0.0
2,9, 1, 9, 0, 4, 0.00,60.00,Monday
141,80662046.53005335
190,0.0
2,9, 1, 9, 0, 5, 0.00,60.00,Monday
141,79657440.393417
190,0.0
2,9, 1, 9, 0, 6, 0.00,60.00,Monday
141,78586573.6351704
190,0.0
2,9, 1, 9, 0, 7, 0.00,60.00,Monday
141,77779093.15858448
190,0.0
2,9, 1, 9, 0, 8, 0.00,60.00,Monday
141,77288996.94587153
190,0.0
2,9, 1, 9, 0, 9, 0.00,60.00,Monday
141,75941408.75889575
190,0.0
2,9, 1, 9, 0,10, 0.00,60.00,Monday
141,72759496.63242228
190,0.0
2,9, 1, 9, 0,11, 0.00,60.00,Monday
141,70016966.36247112
190,0.0
2,9, 1, 9, 0,12, 0.00,60.00,Monday
141,68408304.01891568
190,0.0
2,9, 1, 9, 0,13, 0.00,60.00,Monday
141,66979724.23117263
190,0.0
2,9, 1, 9, 0,14, 0.00,60.00,Monday
141,65781651.57811677
190,0.0
2,9, 1, 9, 0,15, 0.00,60.00,Monday
141,65078282.95327357
190,0.0
2,9, 1, 9, 0,16, 0.00,60.00,Monday
141,65257941.611425474
190,0.0
2,9, 1, 9, 0,17, 0.00,60.00,Monday
141,66915045.15075197
190,0.0
2,9, 1, 9, 0,18, 0.00,60.00,Monday
141,68512181.39521445
190,0.0
2,9, 1, 9, 0,19, 0.00,60.00,Monday
141,68072865.86811827
190,0.0
2,9, 1, 9, 0,20, 0.00,60.00,Monday
141,65123919.503636934
190,0.0
2,9, 1, 9, 0,21, 0.00,60.00,Monday
141,62166359.12894021
190,0.0
2,9, 1, 9, 0,22, 0.00,60.00,Monday
141,60246516.51251513
190,0.0
2,9, 1, 9, 0,23, 0.00,60.00,Monday
141,59626172.65074604
190,0.0
2,9, 1, 9, 0,24, 0.00,60.00,Monday
141,59399466.9183787
190,0.0
2,10, 1,10, 0, 1, 0.00,60.00,Tuesday
141,59673063.45514888
190,0.0
2,10, 1,10, 0, 2, 0.00,60.00,Tuesday
141,59661535.749179915
190,0.0
2,10, 1,10, 0, 3, 0.00,60.00,Tuesday
141,59219217.47962278
190,0.0
2,10, 1,10, 0, 4, 0.00,60.00,Tuesday
141,59548349.365035
190,0.0
2,10, 1,10, 0, 5, 0.00,60.00,Tuesday
141,59372212.31389445
190,0.0
2,10, 1,10, 0, 6, 0.00,60.00,Tuesday
141,59031609.687925175
190,0.0
2,10, 1,10, 0, 7, 0.00,60.00,Tuesday
141,58768453.200532466
190,0.0
2,10, 1,10, 0, 8, 0.00,60.00,Tuesday
141,58155279.676309325
190,0.0
2,10, 1,10, 0, 9, 0.00,60.00,Tuesday
141,57464503.01303506
190,0.0
2,10, 1,10, 0,10, 0.00,60.00,Tuesday
141,56662810.84430074
190,0.0
2,10, 1,10, 0,11, 0.00,60.00,Tuesday
141,55627685.71964565
190,0.0
2,10, 1,10, 0,12, 0.00,60.00,Tuesday
141,54488678.379876144
190,0.0
2,10, 1,10, 0,13, 0.00,60.00,Tuesday
141,54167940.9497964
190,0.0
2,10, 1,10, 0,14, 0.00,60.00,Tuesday
141,57575995.06225479
190,0.0
2,10, 1,10, 0,15, 0.00,60.00,Tuesday
141,60346980.08180405
190,0.0
2,10, 1,10, 0,16, 0.00,60.00,Tuesday
141,62104036.76399047
190,0.0
2,10, 1,10, 0,17, 0.00,60.00,Tuesday
141,64052847.69722016
190,0.0
2,10, 1,10, 0,18, 0.00,60.00,Tuesday
141,66694611.868783675
190,0.0
2,10, 1,10, 0,19, 0.00,60.00,Tuesday
141,68420826.51889549
190,0.0
2,10, 1,10, 0,20, 0.00,60.00,Tuesday
141,70069953.6880448
190,0.0
2,10, 1,10, 0,21, 0.00,60.00,Tuesday
141,72497233.08338907
190,0.0
2,10, 1,10, 0,22, 0.00,60.00,Tuesday
141,74453360.22696498
190,0.0
2,10, 1,10, 0,23, 0.00,60.00,Tuesday
141,75136599.69469112
190,0.0
2,10, 1,10, 0,24, 0.00,60.00,Tuesday
141,77391675.26222597
190,0.0
2,11, 1,11, 0, 1, 0.00,60.00,Wednesday
141,78850378.15742028
190,0.0
2,11, 1,11, 0, 2, 0.00,60.00,Wednesday
141,80287778.71101621
190,0.0
2,11, 1,11, 0, 3, 0.00,60.00,Wednesday
141,82040513.70917854
190,0.0
2,11, 1,11, 0, 4, 0.00,60.00,Wednesday
141,82361661.62241909
190,0.0
2,11, 1,11, 0, 5, 0.00,60.00,Wednesday
141,82707387.40708782
190,0.0
2,11, 1,11, 0, 6, 0.00,60.00,Wednesday
141,83205253.69654694
190,0.0
2,11, 1,11, 0, 7, 0.00,60.00,Wednesday
141,83954422.92389868
190,0.0
2,11, 1,11, 0, 8, 0.00,60.00,Wednesday
141,84614854.22626148
190,0.0
2,11, 1,11, 0, 9, 0.00,60.00,Wednesday
141,84779185.42747694
190,0.0
2,11, 1,11, 0,10, 0.00,60.00,Wednesday
141,84599755.4498735
190,0.0
2,11, 1,11, 0,11, 0.00,60.00,Wednesday
141,84061536.50274964
190,0.0
2,11, 1,11, 0,12, 0.00,60.00,Wednesday
141,82937856.52005708
190,0.0
2,11, 1,11, 0,13, 0.00,60.00,Wednesday
141,81855107.42337635
190,0.0
2,11, 1,11, 0,14, 0.00,60.00,Wednesday
141,81024747.232388
190,0.0
2,11, 1,11, 0,15, 0.00,60.00,Wednesday
141,80235327.41140671
190,0.0
2,11, 1,11, 0,16, 0.00,60.00,Wednesday
141,79413292.66887306
190,0.0
2,11, 1,11, 0,17, 0.00,60.00,Wednesday
141,77872005.9848191
190,0.0
2,11, 1,11, 0,18, 0.00,60.00,Wednesday
141,76436682.7106725
190,0.0
2,11, 1,11, 0,19, 0.00,60.00,Wednesday
141,75355596.80968991
190,0.0
2,11, 1,11, 0,20, 0.00,60.00,Wednesday
141,74840850.55736132
190,0.0
2,11, 1,11, 0,21, 0.00,60.00,Wednesday
141,74515540.94414295
190,0.0
2,11, 1,11, 0,22, 0.00,60.00,Wednesday
141,73042452.15034604
190,0.0
2,11, 1,11, 0,23, 0.00,60.00,Wednesday
141,71937224.46856773
190,0.0
2,11, 1,11, 0,24, 0.00,60.00,Wednesday
141,71937489.8427273
190,0.0
2,12, 1,12, 0, 1, 0.00,60.00,Thursday
141,72346302.88268682
190,0.0
2,12, 1,12, 0, 2, 0.00,60.00,Thursday
141,72343377.20080689
190,0.0
2,12, 1,12, 0, 3, 0.00,60.00,Thursday
141,71976769.71942246
190,0.0
2,12, 1,12, 0, 4, 0.00,60.00,Thursday
141,71965665.84885845
190,0.0
2,12, 1,12, 0, 5, 0.00,60.00,Thursday
141,72372523.41590224
190,0.0
2,12, 1,12, 0, 6, 0.00,60.00,Thursday
141,73397017.79023671
190,0.0
2,12, 1,12, 0, 7, 0.00,60.00,Thursday
141,73939085.0670263
190,0.0
2,12, 1,12, 0, 8, 0.00,60.00,Thursday
141,74054967.32008979
190,0.0
2,12, 1,12, 0, 9, 0.00,60.00,Thursday
141,73295038.599774
190,0.0
2,12, 1,12, 0,10, 0.00,60.00,Thursday
141,71668568.97531956
190,0.0
2,12, 1,12, 0,11, 0.00,60.00,Thursday
141,70430572.0614425
190,0.0
2,12, 1,12, 0,12, 0.00,60.00,Thursday
141,69729692.5838427
190,0.0
2,12, 1,12, 0,13, 0.00,60.00,Thursday
141,68848726.39008419
190,0.0
2,12, 1,12, 0,14, 0.00,60.00,Thursday
141,67938713.13171378
190,0.0
2,12, 1,12, 0,15, 0.00,60.00,Thursday
141,68010109.1401644
190,0.0
2,12, 1,12, 0,16, 0.00,60.00,Thursday
141,68511572.33986221
190,0.0
2,12, 1,12, 0,17, 0.00,60.00,Thursday
141,70541898.64475827
190,0.0
2,12, 1,12, 0,18, 0.00,60.00,Thursday
141,71735502.41996211
190,0.0
2,12, 1,12, 0,19, 0.00,60.00,Thursday
141,71309877.23669177
190,0.0
2,12, 1,12, 0,20, 0.00,60.00,Thursday
141,70257423.53673372
190,0.0
2,12, 1,12, 0,21, 0.00,60.00,Thursday
141,69826757.79989943
190,0.0
2,12, 1,12, 0,22, 0.00,60.00,Thursday
141,69058331.33779977
190,0.0
2,12, 1,12, 0,23, 0.00,60.00,Thursday
141,68677478.15401784
190,0.0
2,12, 1,12, 0,24, 0.00,60.00,Thursday
141,68558435.13980938
190,0.0
2,13, 1,13, 0, 1, 0.00,60.00,Friday
141,67854973.6165592
190,0.0
2,13, 1,13, 0, 2, 0.00,60.00,Friday
141,67153653.67532933
190,0.0
2,13, 1,13, 0, 3, 0.00,60.00,Friday
141,66213246.887617
190,0.0
2,13, 1,13, 0, 4, 0.00,60.00,Friday
141,65514514.33381767
190,0.0
2,13, 1,13, 0, 5, 0.00,60.00,Friday
141,65166369.00784484
190,0.0
2,13, 1,13, 0, 6, 0.00,60.00,Friday
141,64985082.515503325
190,0.0
2,13, 1,13, 0, 7, 0.00,60.00,Friday
141,65110859.48694357
190,0.0
2,13, 1,13, 0, 8, 0.00,60.00,Friday
141,64891890.13820036
190,0.0
2,13, 1,13, 0, 9, 0.00,60.00,Friday
141,64179673.77024436
190,0.0
2,13, 1,13, 0,10, 0.00,60.00,Friday
141,65198216.697722286
190,0.0
2,13, 1,13, 0,11, 0.00,60.00,Friday
141,66411264.588182494
190,0.0
2,13, 1,13, 0,12, 0.00,60.00,Friday
141,66407968.7896768
190,0.0
2,13, 1,13, 0,13, 0.00,60.00,Friday
141,66546639.475955755
190,0.0
2,13, 1,13, 0,14, 0.00,60.00,Friday
141,67427559.33655997
190,0.0
2,13, 1,13, 0,15, 0.00,60.00,Friday
141,67982835.13722031
190,0.0
2,13, 1,13, 0,16, 0.00,60.00,Friday
141,67955366.17983869
190,0.0
2,13, 1,13, 0,17, 0.00,60.00,Friday
141,67810331.13167095
190,0.0
2,13, 1,13, 0,18, 0.00,60.00,Friday
141,67763180.15514904
190,0.0
2,13, 1,13, 0,19, 0.00,60.00,Friday
141,68600915.261458
190,0.0
2,13, 1,13, 0,20, 0.00,60.00,Friday
141,70046055.80663629
190,0.0
2,13, 1,13, 0,21, 0.00,60.00,Friday
141,71398307.5245229
190,0.0
2,13, 1,13, 0,22, 0.00,60.00,Friday
141,72430040.36038944
190,0.0
2,13, 1,13, 0,23, 0.00,60.00,Friday
141,72533882.01750769
190,0.0
2,13, 1,13, 0,24, 0.00,60.00,Friday
141,76362685.64274496
190,0.0
2,14, 1,14, 0, 1, 0.00,60.00,Saturday
141,79206969.86077589
190,0.0
2,14, 1,14, 0, 2, 0.00,60.00,Saturday
141,78797990.68233368
190,0.0
2,14, 1,14, 0, 3, 0.00,60.00,Saturday
141,79472976.63772115
190,0.0
2,14, 1,14, 0, 4, 0.00,60.00,Saturday
141,79538906.90210888
190,0.0
2,14, 1,14, 0, 5, 0.00,60.00,Saturday
141,79812795.37268896
190,0.0
2,14, 1,14, 0, 6, 0.00,60.00,Saturday
141,82603562.83237204
190,0.0
2,14, 1,14, 0, 7, 0.00,60.00,Saturday
141,84867914.39928973
190,0.0
2,14, 1,14, 0, 8, 0.00,60.00,Saturday
141,84825442.56382662
190,0.0
2,14, 1,14, 0, 9, 0.00,60.00,Saturday
141,86434162.9010836
190,0.0
2,14, 1,14, 0,10, 0.00,60.00,Saturday
141,88432108.87118931
190,0.0
2,14, 1,14, 0,11, 0.00,60.00,Saturday
141,88558954.8343806
190,0.0
2,14, 1,14, 0,12, 0.00,60.00,Saturday
141,88313623.44247507
190,0.0
2,14, 1,14, 0,13, 0.00,60.00,Saturday
141,87320107.61840457
190,0.0
2,14, 1,14, 0,14, 0.00,60.00,Saturday
141,84708586.484035
190,0.0
2,14, 1,14, 0,15, 0.00,60.00,Saturday
141,84374528.670163
190,0.0
2,14, 1,14, 0,16, 0.00,60.00,Saturday
141,84841368.33742952
190,0.0
2,14, 1,14, 0,17, 0.00,60.00,Saturday
141,85710812.46760692
190,0.0
2,14, 1,14, 0,18, 0.00,60.00,Saturday
141,87680891.84018193
190,0.0
2,14, 1,14, 0,19, 0.00,60.00,Saturday
141,87834047.41530362
190,0.0
2,14, 1,14, 0,20, 0.00,60.00,Saturday
141,88449928.30813468
190,0.0
2,14, 1,14, 0,21, 0.00,60.00,Saturday
141,88547326.49172896
190,0.0
2,14, 1,14, 0,22, 0.00,60.00,Saturday
141,88401468.57346725
190,0.0
2,14, 1,14, 0,23, 0.00,60.00,Saturday
141,88489428.47749983
190,0.0
2,14, 1,14, 0,24, 0.00,60.00,Saturday
141,88860041.28242753
190,0.0
2,15, 1,15, 0, 1, 0.00,60.00,Sunday
141,88116059.80708565
190,0.0
2,15, 1,15, 0, 2, 0.00,60.00,Sunday
141,85534919.56299905
190,0.0
2,15, 1,15, 0, 3, 0.00,60.00,Sunday
141,84374875.83321317
190,0.0
2,15, 1,15, 0, 4, 0.00,60.00,Sunday
141,83486870.04202501
190,0.0
2,15, 1,15, 0, 5, 0.00,60.00,Sunday
141,81546501.091232
190,0.0
2,15, 1,15, 0, 6, 0.00,60.00,Sunday
141,79332841.22668597
190,0.0
2,15, 1,15, 0, 7, 0.00,60.00,Sunday
141,76996555.4176434
190,0.0
2,15, 1,15, 0, 8, 0.00,60.00,Sunday
141,75209042.81080975
190,0.0
2,15, 1,15, 0, 9, 0.00,60.00,Sunday
141,73631788.72373497
190,0.0
2,15, 1,15, 0,10, 0.00,60.00,Sunday
141,72820613.37946819
190,0.0
2,15, 1,15, 0,11, 0.00,60.00,Sunday
141,73134795.50492778
190,0.0
2,15, 1,15, 0,12, 0.00,60.00,Sunday
141,75066396.29626498
190,0.0
2,15, 1,15, 0,13, 0.00,60.00,Sunday
141,76277707.03462742
190,0.0
2,15, 1,15, 0,14, 0.00,60.00,Sunday
141,76395442.65148167
190,0.0
2,15, 1,15, 0,15, 0.00,60.00,Sunday
141,76172581.17692469
190,0.0
2,15, 1,15, 0,16, 0.00,60.00,Sunday
141,75123108.93046275
190,0.0
2,15, 1,15, 0,17, 0.00,60.00,Sunday
141,74423593.92161243
190,0.0
2,15, 1,15, 0,18, 0.00,60.00,Sunday
141,74432348.40721819
190,0.0
2,15, 1,15, 0,19, 0.00,60.00,Sunday
141,74728396.35858935
190,0.0
2,15, 1,15, 0,20, 0.00,60.00,Sunday
141,75155123.96411885
190,0.0
2,15, 1,15, 0,21, 0.00,60.00,Sunday
141,76308796.4013806
190,0.0
2,15, 1,15, 0,22, 0.00,60.00,Sunday
141,76872123.64507082
190,0.0
2,15, 1,15, 0,23, 0.00,60.00,Sunday
141,77053251.98462106
190,0.0
2,15, 1,15, 0,24, 0.00,60.00,Sunday
141,77583608.66255702
190,0.0
2,16, 1,16, 0, 1, 0.00,60.00,Monday
141,79030714.43912539
190,0.0
2,16, 1,16, 0, 2, 0.00,60.00,Monday
141,80462278.96126103
190,0.0
2,16, 1,16, 0, 3, 0.00,60.00,Monday
141,81444154.98472854
190,0.0
2,16, 1,16, 0, 4, 0.00,60.00,Monday
141,82223869.13183801
190,0.0
2,16, 1,16, 0, 5, 0.00,60.00,Monday
141,83150184.5132183
190,0.0
2,16, 1,16, 0, 6, 0.00,60.00,Monday
141,83918991.59433223
190,0.0
2,16, 1,16, 0, 7, 0.00,60.00,Monday
141,85248362.77406907
190,0.0
2,16, 1,16, 0, 8, 0.00,60.00,Monday
141,86484611.1482891
190,0.0
2,16, 1,16, 0, 9, 0.00,60.00,Monday
141,87081896.41825405
190,0.0
2,16, 1,16, 0,10, 0.00,60.00,Monday
141,87224606.12639746
190,0.0
2,16, 1,16, 0,11, 0.00,60.00,Monday
141,84901041.78250346
190,0.0
2,16, 1,16, 0,12, 0.00,60.00,Monday
141,82793053.14532654
190,0.0
2,16, 1,16, 0,13, 0.00,60.00,Monday
141,80969915.43764879
190,0.0
2,16, 1,16, 0,14, 0.00,60.00,Monday
141,79538872.92654559
190,0.0
2,16, 1,16, 0,15, 0.00,60.00,Monday
141,79149207.83523458
190,0.0
2,16, 1,16, 0,16, 0.00,60.00,Monday
141,79523307.04367511
190,0.0
2,16, 1,16, 0,17, 0.00,60.00,Monday
141,80742044.94245826
190,0.0
2,16, 1,16, 0,18, 0.00,60.00,Monday
141,83130714.20743056
190,0.0
2,16, 1,16, 0,19, 0.00,60.00,Monday
141,85617046.35482313
190,0.0
2,16, 1,16, 0,20, 0.00,60.00,Monday
141,86854053.63968754
190,0.0
2,16, 1,16, 0,21, 0.00,60.00,Monday
141,87813845.06342459
190,0.0
2,16, 1,16, 0,22, 0.00,60.00,Monday
141,88684632.05814219
190,0.0
2,16, 1,16, 0,23, 0.00,60.00,Monday
141,90012229.5143918
190,0.0
2,16, 1,16, 0,24, 0.00,60.00,Monday
141,90293682.45359306
190,0.0
2,17, 1,17, 0, 1, 0.00,60.00,Tuesday
141,90752276.41180007
190,0.0
2,17, 1,17, 0, 2, 0.00,60.00,Tuesday
141,92599501.33517753
190,0.0
2,17, 1,17, 0, 3, 0.00,60.00,Tuesday
141,94331384.36812353
190,0.0
2,17, 1,17, 0, 4, 0.00,60.00,Tuesday
141,95931012.93616249
190,0.0
2,17, 1,17, 0, 5, 0.00,60.00,Tuesday
141,97668209.6753435
190,0.0
2,17, 1,17, 0, 6, 0.00,60.00,Tuesday
141,99397436.35516557
190,0.0
2,17, 1,17, 0, 7, 0.00,60.00,Tuesday
141,100589553.71833627
190,0.0
2,17, 1,17, 0, 8, 0.00,60.00,Tuesday
141,101415072.63405326
190,0.0
2,17, 1,17, 0, 9, 0.00,60.00,Tuesday
141,101911236.22918935
190,0.0
2,17, 1,17, 0,10, 0.00,60.00,Tuesday
141,99511371.10940328
190,0.0
2,17, 1,17, 0,11, 0.00,60.00,Tuesday
141,95758485.22275297
190,0.0
2,17, 1,17, 0,12, 0.00,60.00,Tuesday
141,92444196.65766041
190,0.0
2,17, 1,17, 0,13, 0.00,60.00,Tuesday
141,90298752.60129806
190,0.0
2,17, 1,17, 0,14, 0.00,60.00,Tuesday
141,89340381.33916804
190,0.0
2,17, 1,17, 0,15, 0.00,60.00,Tuesday
141,89082835.67509079
190,0.0
2,17, 1,17, 0,16, 0.00,60.00,Tuesday
141,89872442.054459
190,0.0
2,17, 1,17, 0,17, 0.00,60.00,Tuesday
141,90160205.59010024
190,0.0
2,17, 1,17, 0,18, 0.00,60.00,Tuesday
141,89123044.53042158
190,0.0
2,17, 1,17, 0,19, 0.00,60.00,Tuesday
141,88032557.64768842
190,0.0
2,17, 1,17, 0,20, 0.00,60.00,Tuesday
141,87769036.74899237
190,0.0
2,17, 1,17, 0,21, 0.00,60.00,Tuesday
141,88057487.6907018
190,0.0
2,17, 1,17, 0,22, 0.00,60.00,Tuesday
141,88051762.25247288
190,0.0
2,17, 1,17, 0,23, 0.00,60.00,Tuesday
141,88192153.78616196
190,0.0
2,17, 1,17, 0,24, 0.00,60.00,Tuesday
141,89231829.04444459
190,0.0
2,18, 1,18, 0, 1, 0.00,60.00,Wednesday
141,90072225.16876917
190,0.0
2,18, 1,18, 0, 2, 0.00,60.00,Wednesday
141,90923143.33230095
190,0.0
2,18, 1,18, 0, 3, 0.00,60.00,Wednesday
141,91642115.01095305
190,0.0
2,18, 1,18, 0, 4, 0.00,60.00,Wednesday
141,92202902.51203981
190,0.0
2,18, 1,18, 0, 5, 0.00,60.00,Wednesday
141,92843423.29038341
190,0.0
2,18, 1,18, 0, 6, 0.00,60.00,Wednesday
141,93572710.14543594
190,0.0
2,18, 1,18, 0, 7, 0.00,60.00,Wednesday
141,95386292.41531056
190,0.0
2,18, 1,18, 0, 8, 0.00,60.00,Wednesday
141,96136448.58573067
190,0.0
2,18, 1,18, 0, 9, 0.00,60.00,Wednesday
141,96627827.79011089
190,0.0
2,18, 1,18, 0,10, 0.00,60.00,Wednesday
141,96763150.39910579
190,0.0
2,18, 1,18, 0,11, 0.00,60.00,Wednesday
141,95585869.59597456
190,0.0
2,18, 1,18, 0,12, 0.00,60.00,Wednesday
141,94677188.50524284
190,0.0
2,18, 1,18, 0,13, 0.00,60.00,Wednesday
141,95217325.71255893
190,0.0
2,18, 1,18, 0,14, 0.00,60.00,Wednesday
141,96223677.33029376
190,0.0
2,18, 1,18, 0,15, 0.00,60.00,Wednesday
141,96669338.0434744
190,0.0
2,18, 1,18, 0,16, 0.00,60.00,Wednesday
141,97694726.07786116
190,0.0
2,18, 1,18, 0,17, 0.00,60.00,Wednesday
141,98117462.61343071
190,0.0
2,18, 1,18, 0,18, 0.00,60.00,Wednesday
141,97523300.79310319
190,0.0
2,18, 1,18, 0,19, 0.00,60.00,Wednesday
141,97236786.10219926
190,0.0
2,18, 1,18, 0,20, 0.00,60.00,Wednesday
141,97445086.17000948
190,0.0
2,18, 1,18, 0,21, 0.00,60.00,Wednesday
141,97624760.89158168
190,0.0
2,18, 1,18, 0,22, 0.00,60.00,Wednesday
141,98042003.20720464
190,0.0
2,18, 1,18, 0,23, 0.00,60.00,Wednesday
141,98343923.36609101
190,0.0
2,18, 1,18, 0,24, 0.00,60.00,Wednesday
141,98726988.68135172
190,0.0
2,19, 1,19, 0, 1, 0.00,60.00,Thursday
141,98291029.37697473
190,0.0
2,19, 1,19, 0, 2, 0.00,60.00,Thursday
141,98496748.77405453
190,0.0
2,19, 1,19, 0, 3, 0.00,60.00,Thursday
141,99705198.91136843
190,0.0
2,19, 1,19, 0, 4, 0.00,60.00,Thursday
141,99677926.0900669
190,0.0
2,19, 1,19, 0, 5, 0.00,60.00,Thursday