Program Version,EnergyPlus, Version 24.2.0-94a887817b, YMD=2025.04.24 13:18
1,5,Environment Title[],Latitude[deg],Longitude[deg],Time Zone[],Elevation[m]
2,8,Day of Simulation[],Month[],Day of Month[],DST Indicator[1=yes 0=no],Hour[],StartMinute[],EndMinute[],DayType
3,5,Cumulative Day of Simulation[],Month[],Day of Month[],DST Indicator[1=yes 0=no],DayType  ! When Daily Report Variables Requested
4,2,Cumulative Days of Simulation[],Month[]  ! When Monthly Report Variables Requested
5,1,Cumulative Days of Simulation[] ! When Run Period Report Variables Requested
6,1,Calendar Year of Simulation[] ! When Annual Report Variables Requested
141,1,ZONE_0599100000038020 IDEAL LOADS AIR SYSTEM,Zone Ideal Loads Supply Air Total Heating Energy [J] !Hourly
190,1,ZONE_0599100000038020 IDEAL LOADS AIR SYSTEM,Zone Ideal Loads Supply Air Total Cooling Energy [J] !Hourly
End of Data Dictionary
1,RUN PERIOD 1,  51.96,   4.45,   1.00,  -4.50
2,1, 1, 1, 0, 1, 0.00,60.00,Sunday
141,26909326.412583053
190,0.0
2,1, 1, 1, 0, 2, 0.00,60.00,Sunday
141,27826254.89737834
190,0.0
2,1, 1, 1, 0, 3, 0.00,60.00,Sunday
141,27793637.149627358
190,0.0
2,1, 1, 1, 0, 4, 0.00,60.00,Sunday
141,28468591.583114963
190,0.0
2,1, 1, 1, 0, 5, 0.00,60.00,Sunday
141,28924508.9459545
190,0.0
2,1, 1, 1, 0, 6, 0.00,60.00,Sunday
141,28962500.16791059
190,0.0
2,1, 1, 1, 0, 7, 0.00,60.00,Sunday
141,29036778.98625356
190,0.0
2,1, 1, 1, 0, 8, 0.00,60.00,Sunday
141,28967819.646433596
190,0.0
2,1, 1, 1, 0, 9, 0.00,60.00,Sunday
141,28911285.37891926
190,0.0
2,1, 1, 1, 0,10, 0.00,60.00,Sunday
141,28691438.41209449
190,0.0
2,1, 1, 1, 0,11, 0.00,60.00,Sunday
141,28120932.79443608
190,0.0
2,1, 1, 1, 0,12, 0.00,60.00,Sunday
141,27195491.668646023
190,0.0
2,1, 1, 1, 0,13, 0.00,60.00,Sunday
141,26751895.426532075
190,0.0
2,1, 1, 1, 0,14, 0.00,60.00,Sunday
141,26135276.255824164
190,0.0
2,1, 1, 1, 0,15, 0.00,60.00,Sunday
141,25712805.243748516
190,0.0
2,1, 1, 1, 0,16, 0.00,60.00,Sunday
141,26160784.886309326
190,0.0
2,1, 1, 1, 0,17, 0.00,60.00,Sunday
141,26713932.12106269
190,0.0
2,1, 1, 1, 0,18, 0.00,60.00,Sunday
141,26887298.21027096
190,0.0
2,1, 1, 1, 0,19, 0.00,60.00,Sunday
141,27030255.947500437
190,0.0
2,1, 1, 1, 0,20, 0.00,60.00,Sunday
141,26984044.265077677
190,0.0
2,1, 1, 1, 0,21, 0.00,60.00,Sunday
141,26870707.77448952
190,0.0
2,1, 1, 1, 0,22, 0.00,60.00,Sunday
141,26903220.176763494
190,0.0
2,1, 1, 1, 0,23, 0.00,60.00,Sunday
141,26220318.612243496
190,0.0
2,1, 1, 1, 0,24, 0.00,60.00,Sunday
141,25706050.908990376
190,0.0
2,2, 1, 2, 0, 1, 0.00,60.00,Monday
141,25767229.48330082
190,0.0
2,2, 1, 2, 0, 2, 0.00,60.00,Monday
141,25083135.294118028
190,0.0
2,2, 1, 2, 0, 3, 0.00,60.00,Monday
141,24555310.453843266
190,0.0
2,2, 1, 2, 0, 4, 0.00,60.00,Monday
141,24023854.570082705
190,0.0
2,2, 1, 2, 0, 5, 0.00,60.00,Monday
141,22884733.672632318
190,0.0
2,2, 1, 2, 0, 6, 0.00,60.00,Monday
141,22337703.26702504
190,0.0
2,2, 1, 2, 0, 7, 0.00,60.00,Monday
141,21487631.77189355
190,0.0
2,2, 1, 2, 0, 8, 0.00,60.00,Monday
141,20455297.700124647
190,0.0
2,2, 1, 2, 0, 9, 0.00,60.00,Monday
141,20765428.018721294
190,0.0
2,2, 1, 2, 0,10, 0.00,60.00,Monday
141,21523787.757052574
190,0.0
2,2, 1, 2, 0,11, 0.00,60.00,Monday
141,22036343.2445842
190,0.0
2,2, 1, 2, 0,12, 0.00,60.00,Monday
141,21590001.480706945
190,0.0
2,2, 1, 2, 0,13, 0.00,60.00,Monday
141,21396357.644835077
190,0.0
2,2, 1, 2, 0,14, 0.00,60.00,Monday
141,21908359.22043892
190,0.0
2,2, 1, 2, 0,15, 0.00,60.00,Monday
141,22109278.871608797
190,0.0
2,2, 1, 2, 0,16, 0.00,60.00,Monday
141,22574138.918243416
190,0.0
2,2, 1, 2, 0,17, 0.00,60.00,Monday
141,23023591.6849677
190,0.0
2,2, 1, 2, 0,18, 0.00,60.00,Monday
141,23070513.26616685
190,0.0
2,2, 1, 2, 0,19, 0.00,60.00,Monday
141,23566463.56819889
190,0.0
2,2, 1, 2, 0,20, 0.00,60.00,Monday
141,24018785.40508374
190,0.0
2,2, 1, 2, 0,21, 0.00,60.00,Monday
141,24058535.685928293
190,0.0
2,2, 1, 2, 0,22, 0.00,60.00,Monday
141,24005974.95961265
190,0.0
2,2, 1, 2, 0,23, 0.00,60.00,Monday
141,23990958.042273015
190,0.0
2,2, 1, 2, 0,24, 0.00,60.00,Monday
141,23991256.770841055
190,0.0
2,3, 1, 3, 0, 1, 0.00,60.00,Tuesday
141,24013811.414208535
190,0.0
2,3, 1, 3, 0, 2, 0.00,60.00,Tuesday
141,23995726.155880287
190,0.0
2,3, 1, 3, 0, 3, 0.00,60.00,Tuesday
141,23967295.446906526
190,0.0
2,3, 1, 3, 0, 4, 0.00,60.00,Tuesday
141,24045739.796481658
190,0.0
2,3, 1, 3, 0, 5, 0.00,60.00,Tuesday
141,24674136.76566668
190,0.0
2,3, 1, 3, 0, 6, 0.00,60.00,Tuesday
141,25085583.735807445
190,0.0
2,3, 1, 3, 0, 7, 0.00,60.00,Tuesday
141,25289797.123808943
190,0.0
2,3, 1, 3, 0, 8, 0.00,60.00,Tuesday
141,25247694.905579023
190,0.0
2,3, 1, 3, 0, 9, 0.00,60.00,Tuesday
141,25773738.593720168
190,0.0
2,3, 1, 3, 0,10, 0.00,60.00,Tuesday
141,26036091.53315893
190,0.0
2,3, 1, 3, 0,11, 0.00,60.00,Tuesday
141,26115541.283854302
190,0.0
2,3, 1, 3, 0,12, 0.00,60.00,Tuesday
141,26287128.864347443
190,0.0
2,3, 1, 3, 0,13, 0.00,60.00,Tuesday
141,27087643.109601118
190,0.0
2,3, 1, 3, 0,14, 0.00,60.00,Tuesday
141,27532494.697453048
190,0.0
2,3, 1, 3, 0,15, 0.00,60.00,Tuesday
141,27450302.271781094
190,0.0
2,3, 1, 3, 0,16, 0.00,60.00,Tuesday
141,27375585.57375395
190,0.0
2,3, 1, 3, 0,17, 0.00,60.00,Tuesday
141,27410749.994939443
190,0.0
2,3, 1, 3, 0,18, 0.00,60.00,Tuesday
141,27482107.678772762
190,0.0
2,3, 1, 3, 0,19, 0.00,60.00,Tuesday
141,27361581.87847215
190,0.0
2,3, 1, 3, 0,20, 0.00,60.00,Tuesday
141,26749121.939656213
190,0.0
2,3, 1, 3, 0,21, 0.00,60.00,Tuesday
141,25086003.88474822
190,0.0
2,3, 1, 3, 0,22, 0.00,60.00,Tuesday
141,24195137.139130708
190,0.0
2,3, 1, 3, 0,23, 0.00,60.00,Tuesday
141,24836191.308878854
190,0.0
2,3, 1, 3, 0,24, 0.00,60.00,Tuesday
141,25928099.93353271
190,0.0
2,4, 1, 4, 0, 1, 0.00,60.00,Wednesday
141,26475088.947437204
190,0.0
2,4, 1, 4, 0, 2, 0.00,60.00,Wednesday
141,26395118.612618785
190,0.0
2,4, 1, 4, 0, 3, 0.00,60.00,Wednesday
141,26236432.30825933
190,0.0
2,4, 1, 4, 0, 4, 0.00,60.00,Wednesday
141,26424973.445382036
190,0.0
2,4, 1, 4, 0, 5, 0.00,60.00,Wednesday
141,27152944.67205529
190,0.0
2,4, 1, 4, 0, 6, 0.00,60.00,Wednesday
141,26970633.051694755
190,0.0
2,4, 1, 4, 0, 7, 0.00,60.00,Wednesday
141,26945255.31481704
190,0.0
2,4, 1, 4, 0, 8, 0.00,60.00,Wednesday
141,27247752.505875736
190,0.0
2,4, 1, 4, 0, 9, 0.00,60.00,Wednesday
141,27472977.88449134
190,0.0
2,4, 1, 4, 0,10, 0.00,60.00,Wednesday
141,27659485.903680556
190,0.0
2,4, 1, 4, 0,11, 0.00,60.00,Wednesday
141,26371526.186459377
190,0.0
2,4, 1, 4, 0,12, 0.00,60.00,Wednesday
141,24179439.83610919
190,0.0
2,4, 1, 4, 0,13, 0.00,60.00,Wednesday
141,23606386.13721188
190,0.0
2,4, 1, 4, 0,14, 0.00,60.00,Wednesday
141,23547953.17832953
190,0.0
2,4, 1, 4, 0,15, 0.00,60.00,Wednesday
141,23356166.21222648
190,0.0
2,4, 1, 4, 0,16, 0.00,60.00,Wednesday
141,24281962.030633353
190,0.0
2,4, 1, 4, 0,17, 0.00,60.00,Wednesday
141,25923516.39557448
190,0.0
2,4, 1, 4, 0,18, 0.00,60.00,Wednesday
141,27342112.717687875
190,0.0
2,4, 1, 4, 0,19, 0.00,60.00,Wednesday
141,28777287.634669125
190,0.0
2,4, 1, 4, 0,20, 0.00,60.00,Wednesday
141,29522434.213832483
190,0.0
2,4, 1, 4, 0,21, 0.00,60.00,Wednesday
141,29847063.506491657
190,0.0
2,4, 1, 4, 0,22, 0.00,60.00,Wednesday
141,30519591.676683538
190,0.0
2,4, 1, 4, 0,23, 0.00,60.00,Wednesday
141,30187070.553538937
190,0.0
2,4, 1, 4, 0,24, 0.00,60.00,Wednesday
141,29645228.063922387
190,0.0
2,5, 1, 5, 0, 1, 0.00,60.00,Thursday
141,29800741.446599443
190,0.0
2,5, 1, 5, 0, 2, 0.00,60.00,Thursday
141,29423515.16721864
190,0.0
2,5, 1, 5, 0, 3, 0.00,60.00,Thursday
141,29065937.36558633
190,0.0
2,5, 1, 5, 0, 4, 0.00,60.00,Thursday
141,29127015.486144915
190,0.0
2,5, 1, 5, 0, 5, 0.00,60.00,Thursday
141,28743416.03631621
190,0.0
2,5, 1, 5, 0, 6, 0.00,60.00,Thursday
141,28595948.228024915
190,0.0
2,5, 1, 5, 0, 7, 0.00,60.00,Thursday
141,28880025.469609212
190,0.0
2,5, 1, 5, 0, 8, 0.00,60.00,Thursday
141,29138413.233230583
190,0.0
2,5, 1, 5, 0, 9, 0.00,60.00,Thursday
141,29253698.22886556
190,0.0
2,5, 1, 5, 0,10, 0.00,60.00,Thursday
141,29715825.089378797
190,0.0
2,5, 1, 5, 0,11, 0.00,60.00,Thursday
141,29634502.99299468
190,0.0
2,5, 1, 5, 0,12, 0.00,60.00,Thursday
141,28714005.61639278
190,0.0
2,5, 1, 5, 0,13, 0.00,60.00,Thursday
141,28407112.375986308
190,0.0
2,5, 1, 5, 0,14, 0.00,60.00,Thursday
141,27748327.900918487
190,0.0
2,5, 1, 5, 0,15, 0.00,60.00,Thursday
141,27226180.644874237
190,0.0
2,5, 1, 5, 0,16, 0.00,60.00,Thursday
141,27680541.69226209
190,0.0
2,5, 1, 5, 0,17, 0.00,60.00,Thursday
141,27573752.75502605
190,0.0
2,5, 1, 5, 0,18, 0.00,60.00,Thursday
141,27273815.313181184
190,0.0
2,5, 1, 5, 0,19, 0.00,60.00,Thursday
141,27423098.56606043
190,0.0
2,5, 1, 5, 0,20, 0.00,60.00,Thursday
141,27366623.836792763
190,0.0
2,5, 1, 5, 0,21, 0.00,60.00,Thursday
141,27237392.610915862
190,0.0
2,5, 1, 5, 0,22, 0.00,60.00,Thursday
141,27225198.981679533
190,0.0
2,5, 1, 5, 0,23, 0.00,60.00,Thursday
141,27335578.17509249
190,0.0
2,5, 1, 5, 0,24, 0.00,60.00,Thursday
141,27458975.03131345
190,0.0
2,6, 1, 6, 0, 1, 0.00,60.00,Friday
141,27530754.252572726
190,0.0
2,6, 1, 6, 0, 2, 0.00,60.00,Friday
141,27600389.579665124
190,0.0
2,6, 1, 6, 0, 3, 0.00,60.00,Friday
141,28204919.22934991
190,0.0
2,6, 1, 6, 0, 4, 0.00,60.00,Friday
141,28792229.421965618
190,0.0
2,6, 1, 6, 0, 5, 0.00,60.00,Friday
141,29088883.148351446
190,0.0
2,6, 1, 6, 0, 6, 0.00,60.00,Friday
141,29456693.978876967
190,0.0
2,6, 1, 6, 0, 7, 0.00,60.00,Friday
141,30011840.918848146
190,0.0
2,6, 1, 6, 0, 8, 0.00,60.00,Friday
141,30537664.762526643
190,0.0
2,6, 1, 6, 0, 9, 0.00,60.00,Friday
141,31176981.770265426
190,0.0
2,6, 1, 6, 0,10, 0.00,60.00,Friday
141,31553366.139085136
190,0.0
2,6, 1, 6, 0,11, 0.00,60.00,Friday
141,31109384.46283966
190,0.0
2,6, 1, 6, 0,12, 0.00,60.00,Friday
141,30425146.52853977
190,0.0
2,6, 1, 6, 0,13, 0.00,60.00,Friday
141,30104395.37794429
190,0.0
2,6, 1, 6, 0,14, 0.00,60.00,Friday
141,29981127.926082045
190,0.0
2,6, 1, 6, 0,15, 0.00,60.00,Friday
141,29808769.047960937
190,0.0
2,6, 1, 6, 0,16, 0.00,60.00,Friday
141,29393826.407119974
190,0.0
2,6, 1, 6, 0,17, 0.00,60.00,Friday
141,28962261.524009097
190,0.0
2,6, 1, 6, 0,18, 0.00,60.00,Friday
141,28757476.586070187
190,0.0
2,6, 1, 6, 0,19, 0.00,60.00,Friday
141,28512024.164144132
190,0.0
2,6, 1, 6, 0,20, 0.00,60.00,Friday
141,27909052.654044166
190,0.0
2,6, 1, 6, 0,21, 0.00,60.00,Friday
141,26402650.934476063
190,0.0
2,6, 1, 6, 0,22, 0.00,60.00,Friday
141,24599810.24457885
190,0.0
2,6, 1, 6, 0,23, 0.00,60.00,Friday
141,23790177.6817169
190,0.0
2,6, 1, 6, 0,24, 0.00,60.00,Friday
141,23961055.512847222
190,0.0
2,7, 1, 7, 0, 1, 0.00,60.00,Saturday
141,25378060.64623911
190,0.0
2,7, 1, 7, 0, 2, 0.00,60.00,Saturday
141,26790438.779053573
190,0.0
2,7, 1, 7, 0, 3, 0.00,60.00,Saturday
141,26581720.359851994
190,0.0
2,7, 1, 7, 0, 4, 0.00,60.00,Saturday
141,26686594.455073655
190,0.0
2,7, 1, 7, 0, 5, 0.00,60.00,Saturday
141,27645215.111035258
190,0.0
2,7, 1, 7, 0, 6, 0.00,60.00,Saturday
141,28392687.25285586
190,0.0
2,7, 1, 7, 0, 7, 0.00,60.00,Saturday
141,28826996.902608577
190,0.0
2,7, 1, 7, 0, 8, 0.00,60.00,Saturday
141,29037653.094296895
190,0.0
2,7, 1, 7, 0, 9, 0.00,60.00,Saturday
141,28489389.23267031
190,0.0
2,7, 1, 7, 0,10, 0.00,60.00,Saturday
141,28001658.166117076
190,0.0
2,7, 1, 7, 0,11, 0.00,60.00,Saturday
141,26578425.926311858
190,0.0
2,7, 1, 7, 0,12, 0.00,60.00,Saturday
141,25150277.098201033
190,0.0
2,7, 1, 7, 0,13, 0.00,60.00,Saturday
141,24124415.95006906
190,0.0
2,7, 1, 7, 0,14, 0.00,60.00,Saturday
141,23627718.635339454
190,0.0
2,7, 1, 7, 0,15, 0.00,60.00,Saturday
141,23898039.936967902
190,0.0
2,7, 1, 7, 0,16, 0.00,60.00,Saturday
141,24420695.4272576
190,0.0
2,7, 1, 7, 0,17, 0.00,60.00,Saturday
141,24854739.845145456
190,0.0
2,7, 1, 7, 0,18, 0.00,60.00,Saturday
141,25570967.482816562
190,0.0
2,7, 1, 7, 0,19, 0.00,60.00,Saturday
141,26222411.150973063
190,0.0
2,7, 1, 7, 0,20, 0.00,60.00,Saturday
141,26832618.493761886
190,0.0
2,7, 1, 7, 0,21, 0.00,60.00,Saturday
141,27246081.103097178
190,0.0
2,7, 1, 7, 0,22, 0.00,60.00,Saturday
141,27215849.331580035
190,0.0
2,7, 1, 7, 0,23, 0.00,60.00,Saturday
141,27241133.4233995
190,0.0
2,7, 1, 7, 0,24, 0.00,60.00,Saturday
141,27141152.372208476
190,0.0
2,8, 1, 8, 0, 1, 0.00,60.00,Sunday
141,26658682.61951781
190,0.0
2,8, 1, 8, 0, 2, 0.00,60.00,Sunday
141,26109000.77817896
190,0.0
2,8, 1, 8, 0, 3, 0.00,60.00,Sunday
141,25613079.962972555
190,0.0
2,8, 1, 8, 0, 4, 0.00,60.00,Sunday
141,24931227.067359526
190,0.0
2,8, 1, 8, 0, 5, 0.00,60.00,Sunday
141,24119003.238801513
190,0.0
2,8, 1, 8, 0, 6, 0.00,60.00,Sunday
141,23510310.359745197
190,0.0
2,8, 1, 8, 0, 7, 0.00,60.00,Sunday
141,23047491.462607384
190,0.0
2,8, 1, 8, 0, 8, 0.00,60.00,Sunday
141,22654405.74989433
190,0.0
2,8, 1, 8, 0, 9, 0.00,60.00,Sunday
141,22248030.950798668
190,0.0
2,8, 1, 8, 0,10, 0.00,60.00,Sunday
141,22118178.238914594
190,0.0
2,8, 1, 8, 0,11, 0.00,60.00,Sunday
141,22020014.27608127
190,0.0
2,8, 1, 8, 0,12, 0.00,60.00,Sunday
141,22102242.07919331
190,0.0
2,8, 1, 8, 0,13, 0.00,60.00,Sunday
141,22027513.707314108
190,0.0
2,8, 1, 8, 0,14, 0.00,60.00,Sunday
141,22120908.11611718
190,0.0
2,8, 1, 8, 0,15, 0.00,60.00,Sunday
141,22991633.787798576
190,0.0
2,8, 1, 8, 0,16, 0.00,60.00,Sunday
141,23614595.83052684
190,0.0
2,8, 1, 8, 0,17, 0.00,60.00,Sunday
141,23634965.89165544
190,0.0
2,8, 1, 8, 0,18, 0.00,60.00,Sunday
141,23900089.305011585
190,0.0
2,8, 1, 8, 0,19, 0.00,60.00,Sunday
141,23732287.28230978
190,0.0
2,8, 1, 8, 0,20, 0.00,60.00,Sunday
141,23185977.04194824
190,0.0
2,8, 1, 8, 0,21, 0.00,60.00,Sunday
141,22788913.00065797
190,0.0
2,8, 1, 8, 0,22, 0.00,60.00,Sunday
141,22882379.488752645
190,0.0
2,8, 1, 8, 0,23, 0.00,60.00,Sunday
141,22971988.40134802
190,0.0
2,8, 1, 8, 0,24, 0.00,60.00,Sunday
141,23276681.337969907
190,0.0
2,9, 1, 9, 0, 1, 0.00,60.00,Monday
141,23330475.89144888
190,0.0
2,9, 1, 9, 0, 2, 0.00,60.00,Monday
141,23362400.08329018
190,0.0
2,9, 1, 9, 0, 3, 0.00,60.00,Monday
141,23283873.88097906
190,0.0
2,9, 1, 9, 0, 4, 0.00,60.00,Monday
141,23091236.457877226
190,0.0
2,9, 1, 9, 0, 5, 0.00,60.00,Monday
141,22661392.489179835
190,0.0
2,9, 1, 9, 0, 6, 0.00,60.00,Monday
141,22229283.571296472
190,0.0
2,9, 1, 9, 0, 7, 0.00,60.00,Monday
141,21921935.239847373
190,0.0
2,9, 1, 9, 0, 8, 0.00,60.00,Monday
141,21761696.081502546
190,0.0
2,9, 1, 9, 0, 9, 0.00,60.00,Monday
141,21303518.24816755
190,0.0
2,9, 1, 9, 0,10, 0.00,60.00,Monday
141,20171396.34388718
190,0.0
2,9, 1, 9, 0,11, 0.00,60.00,Monday
141,19208200.493255205
190,0.0
2,9, 1, 9, 0,12, 0.00,60.00,Monday
141,18679870.844459806
190,0.0
2,9, 1, 9, 0,13, 0.00,60.00,Monday
141,18244269.20129977
190,0.0
2,9, 1, 9, 0,14, 0.00,60.00,Monday
141,17928002.717355542
190,0.0
2,9, 1, 9, 0,15, 0.00,60.00,Monday
141,17822232.545724396
190,0.0
2,9, 1, 9, 0,16, 0.00,60.00,Monday
141,18054742.144039236
190,0.0
2,9, 1, 9, 0,17, 0.00,60.00,Monday
141,18830597.145910814
190,0.0
2,9, 1, 9, 0,18, 0.00,60.00,Monday
141,19558771.53333044
190,0.0
2,9, 1, 9, 0,19, 0.00,60.00,Monday
141,19489706.575346462
190,0.0
2,9, 1, 9, 0,20, 0.00,60.00,Monday
141,18450377.719274253
190,0.0
2,9, 1, 9, 0,21, 0.00,60.00,Monday
141,17398342.01368337
190,0.0
2,9, 1, 9, 0,22, 0.00,60.00,Monday
141,16746489.476095391
190,0.0
2,9, 1, 9, 0,23, 0.00,60.00,Monday
141,16611168.5519366
190,0.0
2,9, 1, 9, 0,24, 0.00,60.00,Monday
141,16659239.79074435
190,0.0
2,10, 1,10, 0, 1, 0.00,60.00,Tuesday
141,16926958.60491949
190,0.0
2,10, 1,10, 0, 2, 0.00,60.00,Tuesday
141,17103803.291395824
190,0.0
2,10, 1,10, 0, 3, 0.00,60.00,Tuesday
141,17119627.29510214
190,0.0
2,10, 1,10, 0, 4, 0.00,60.00,Tuesday
141,17418440.21181744
190,0.0
2,10, 1,10, 0, 5, 0.00,60.00,Tuesday
141,17515337.54934582
190,0.0
2,10, 1,10, 0, 6, 0.00,60.00,Tuesday
141,17532806.075778827
190,0.0
2,10, 1,10, 0, 7, 0.00,60.00,Tuesday
141,17557038.661805797
190,0.0
2,10, 1,10, 0, 8, 0.00,60.00,Tuesday
141,17427708.37011831
190,0.0
2,10, 1,10, 0, 9, 0.00,60.00,Tuesday
141,17250724.681444995
190,0.0
2,10, 1,10, 0,10, 0.00,60.00,Tuesday
141,17016581.461761042
190,0.0
2,10, 1,10, 0,11, 0.00,60.00,Tuesday
141,16682439.886367846
190,0.0
2,10, 1,10, 0,12, 0.00,60.00,Tuesday
141,16303311.961931946
190,0.0
2,10, 1,10, 0,13, 0.00,60.00,Tuesday
141,16232444.899499724
190,0.0
2,10, 1,10, 0,14, 0.00,60.00,Tuesday
141,17562484.382144038
190,0.0
2,10, 1,10, 0,15, 0.00,60.00,Tuesday
141,18636655.654914517
190,0.0
2,10, 1,10, 0,16, 0.00,60.00,Tuesday
141,19295214.194466136
190,0.0
2,10, 1,10, 0,17, 0.00,60.00,Tuesday
141,19973829.414551616
190,0.0
2,10, 1,10, 0,18, 0.00,60.00,Tuesday
141,20856969.666980393
190,0.0
2,10, 1,10, 0,19, 0.00,60.00,Tuesday
141,21321629.12309619
190,0.0
2,10, 1,10, 0,20, 0.00,60.00,Tuesday
141,21670593.23574625
190,0.0
2,10, 1,10, 0,21, 0.00,60.00,Tuesday
141,22229952.84238295
190,0.0
2,10, 1,10, 0,22, 0.00,60.00,Tuesday
141,22553959.026456024
190,0.0
2,10, 1,10, 0,23, 0.00,60.00,Tuesday
141,22365214.49892569
190,0.0
2,10, 1,10, 0,24, 0.00,60.00,Tuesday
141,22750334.927485354
190,0.0
2,11, 1,11, 0, 1, 0.00,60.00,Wednesday
141,22835033.892647814
190,0.0
2,11, 1,11, 0, 2, 0.00,60.00,Wednesday
141,22927091.47365311
190,0.0
2,11, 1,11, 0, 3, 0.00,60.00,Wednesday
141,23171121.738118276
190,0.0
2,11, 1,11, 0, 4, 0.00,60.00,Wednesday
141,22937790.44505268
190,0.0
2,11, 1,11, 0, 5, 0.00,60.00,Wednesday
141,22790527.61095989
190,0.0
2,11, 1,11, 0, 6, 0.00,60.00,Wednesday
141,22774238.519735094
190,0.0
2,11, 1,11, 0, 7, 0.00,60.00,Wednesday
141,22916214.407018
190,0.0
2,11, 1,11, 0, 8, 0.00,60.00,Wednesday
141,23077328.086813398
190,0.0
2,11, 1,11, 0, 9, 0.00,60.00,Wednesday
141,23091875.744361144
190,0.0
2,11, 1,11, 0,10, 0.00,60.00,Wednesday
141,23004519.78211795
190,0.0
2,11, 1,11, 0,11, 0.00,60.00,Wednesday
141,22804854.782309473
190,0.0
2,11, 1,11, 0,12, 0.00,60.00,Wednesday
141,22429339.31093597
190,0.0
2,11, 1,11, 0,13, 0.00,60.00,Wednesday
141,22151904.39474959
190,0.0
2,11, 1,11, 0,14, 0.00,60.00,Wednesday
141,22067880.177081138
190,0.0
2,11, 1,11, 0,15, 0.00,60.00,Wednesday
141,22085449.38146472
190,0.0
2,11, 1,11, 0,16, 0.00,60.00,Wednesday
141,22144366.794094544
190,0.0
2,11, 1,11, 0,17, 0.00,60.00,Wednesday
141,21939277.826098345
190,0.0
2,11, 1,11, 0,18, 0.00,60.00,Wednesday
141,21732037.551660955
190,0.0
2,11, 1,11, 0,19, 0.00,60.00,Wednesday
141,21583427.03404201
190,0.0
2,11, 1,11, 0,20, 0.00,60.00,Wednesday
141,21566187.850394815
190,0.0
2,11, 1,11, 0,21, 0.00,60.00,Wednesday
141,21551798.747597113
190,0.0
2,11, 1,11, 0,22, 0.00,60.00,Wednesday
141,21056701.935744137
190,0.0
2,11, 1,11, 0,23, 0.00,60.00,Wednesday
141,20669049.888306644
190,0.0
2,11, 1,11, 0,24, 0.00,60.00,Wednesday
141,20681600.4816553
190,0.0
2,12, 1,12, 0, 1, 0.00,60.00,Thursday
141,20844682.1278782
190,0.0
2,12, 1,12, 0, 2, 0.00,60.00,Thursday
141,20855843.542258844
190,0.0
2,12, 1,12, 0, 3, 0.00,60.00,Thursday
141,20731443.742764555
190,0.0
2,12, 1,12, 0, 4, 0.00,60.00,Thursday
141,20738100.21040107
190,0.0
2,12, 1,12, 0, 5, 0.00,60.00,Thursday
141,20898630.345690634
190,0.0
2,12, 1,12, 0, 6, 0.00,60.00,Thursday
141,21290103.014530618
190,0.0
2,12, 1,12, 0, 7, 0.00,60.00,Thursday
141,21500106.487228118
190,0.0
2,12, 1,12, 0, 8, 0.00,60.00,Thursday
141,21548885.834840775
190,0.0
2,12, 1,12, 0, 9, 0.00,60.00,Thursday
141,21265613.759736322
190,0.0
2,12, 1,12, 0,10, 0.00,60.00,Thursday
141,20653800.60931016
190,0.0
2,12, 1,12, 0,11, 0.00,60.00,Thursday
141,20187519.793050084
190,0.0
2,12, 1,12, 0,12, 0.00,60.00,Thursday
141,19920076.212269485
190,0.0
2,12, 1,12, 0,13, 0.00,60.00,Thursday
141,19570071.989993945
190,0.0
2,12, 1,12, 0,14, 0.00,60.00,Thursday
141,19192100.162486594
190,0.0
2,12, 1,12, 0,15, 0.00,60.00,Thursday
141,19174619.82832358
190,0.0
2,12, 1,12, 0,16, 0.00,60.00,Thursday
141,19320070.020439927
190,0.0
2,12, 1,12, 0,17, 0.00,60.00,Thursday
141,20048492.71376893
190,0.0
2,12, 1,12, 0,18, 0.00,60.00,Thursday
141,20471755.071945835
190,0.0
2,12, 1,12, 0,19, 0.00,60.00,Thursday
141,20291875.161358546
190,0.0
2,12, 1,12, 0,20, 0.00,60.00,Thursday
141,19878679.850592367
190,0.0
2,12, 1,12, 0,21, 0.00,60.00,Thursday
141,19705934.61066659
190,0.0
2,12, 1,12, 0,22, 0.00,60.00,Thursday
141,19424119.250926983
190,0.0
2,12, 1,12, 0,23, 0.00,60.00,Thursday
141,19314230.07880892
190,0.0
2,12, 1,12, 0,24, 0.00,60.00,Thursday
141,19327494.891657658
190,0.0
2,13, 1,13, 0, 1, 0.00,60.00,Friday
141,19141214.367982447
190,0.0
2,13, 1,13, 0, 2, 0.00,60.00,Friday
141,18969558.413040392
190,0.0
2,13, 1,13, 0, 3, 0.00,60.00,Friday
141,18715974.38586778
190,0.0
2,13, 1,13, 0, 4, 0.00,60.00,Friday
141,18557947.187488124
190,0.0
2,13, 1,13, 0, 5, 0.00,60.00,Friday
141,18533531.321594298
190,0.0
2,13, 1,13, 0, 6, 0.00,60.00,Friday
141,18570497.115578778
190,0.0
2,13, 1,13, 0, 7, 0.00,60.00,Friday
141,18711215.03268887
190,0.0
2,13, 1,13, 0, 8, 0.00,60.00,Friday
141,18707292.139286485
190,0.0
2,13, 1,13, 0, 9, 0.00,60.00,Friday
141,18509424.77170655
190,0.0
2,13, 1,13, 0,10, 0.00,60.00,Friday
141,18951089.37485776
190,0.0
2,13, 1,13, 0,11, 0.00,60.00,Friday
141,19446830.341276914
190,0.0
2,13, 1,13, 0,12, 0.00,60.00,Friday
141,19463273.381161455
190,0.0
2,13, 1,13, 0,13, 0.00,60.00,Friday
141,19507717.636876736
190,0.0
2,13, 1,13, 0,14, 0.00,60.00,Friday
141,19806080.466608454
190,0.0
2,13, 1,13, 0,15, 0.00,60.00,Friday
141,19959944.593814634
190,0.0
2,13, 1,13, 0,16, 0.00,60.00,Friday
141,19877085.24149801
190,0.0
2,13, 1,13, 0,17, 0.00,60.00,Friday
141,19749667.16003811
190,0.0
2,13, 1,13, 0,18, 0.00,60.00,Friday
141,19681558.681794703
190,0.0
2,13, 1,13, 0,19, 0.00,60.00,Friday
141,19969321.165900193
190,0.0
2,13, 1,13, 0,20, 0.00,60.00,Friday
141,20493496.69187642
190,0.0
2,13, 1,13, 0,21, 0.00,60.00,Friday
141,20963354.7474824
190,0.0
2,13, 1,13, 0,22, 0.00,60.00,Friday
141,21260327.923873972
190,0.0
2,13, 1,13, 0,23, 0.00,60.00,Friday
141,21148235.343645863
190,0.0
2,13, 1,13, 0,24, 0.00,60.00,Friday
141,22395100.033861883
190,0.0
2,14, 1,14, 0, 1, 0.00,60.00,Saturday
141,23256989.389867805
190,0.0
2,14, 1,14, 0, 2, 0.00,60.00,Saturday
141,22908628.341435347
190,0.0
2,14, 1,14, 0, 3, 0.00,60.00,Saturday
141,22993965.016012527
190,0.0
2,14, 1,14, 0, 4, 0.00,60.00,Saturday
141,22876638.017988462
190,0.0
2,14, 1,14, 0, 5, 0.00,60.00,Saturday
141,22859451.426246904
190,0.0
2,14, 1,14, 0, 6, 0.00,60.00,Saturday
141,23789995.62163157
190,0.0
2,14, 1,14, 0, 7, 0.00,60.00,Saturday
141,24495633.165634505
190,0.0
2,14, 1,14, 0, 8, 0.00,60.00,Saturday
141,24295627.111843176
190,0.0
2,14, 1,14, 0, 9, 0.00,60.00,Saturday
141,24680985.408049125
190,0.0
2,14, 1,14, 0,10, 0.00,60.00,Saturday
141,25193677.674555447
190,0.0
2,14, 1,14, 0,11, 0.00,60.00,Saturday
141,25016702.747117907
190,0.0
2,14, 1,14, 0,12, 0.00,60.00,Saturday
141,24742607.28964061
190,0.0
2,14, 1,14, 0,13, 0.00,60.00,Saturday
141,24248973.004671495
190,0.0
2,14, 1,14, 0,14, 0.00,60.00,Saturday
141,23219889.65210758
190,0.0
2,14, 1,14, 0,15, 0.00,60.00,Saturday
141,23123778.153933674
190,0.0
2,14, 1,14, 0,16, 0.00,60.00,Saturday
141,23402829.23349035
190,0.0
2,14, 1,14, 0,17, 0.00,60.00,Saturday
141,23867361.062093947
190,0.0
2,14, 1,14, 0,18, 0.00,60.00,Saturday
141,24691700.396166116
190,0.0
2,14, 1,14, 0,19, 0.00,60.00,Saturday
141,24733958.841012623
190,0.0
2,14, 1,14, 0,20, 0.00,60.00,Saturday
141,24860023.312537596
190,0.0
2,14, 1,14, 0,21, 0.00,60.00,Saturday
141,24727881.602403983
190,0.0
2,14, 1,14, 0,22, 0.00,60.00,Saturday
141,24469023.48246216
190,0.0
2,14, 1,14, 0,23, 0.00,60.00,Saturday
141,24287807.564919256
190,0.0
2,14, 1,14, 0,24, 0.00,60.00,Saturday
141,24223441.575223062
190,0.0
2,15, 1,15, 0, 1, 0.00,60.00,Sunday
141,23766072.3015942
190,0.0
2,15, 1,15, 0, 2, 0.00,60.00,Sunday
141,22655315.06256251
190,0.0
2,15, 1,15, 0, 3, 0.00,60.00,Sunday
141,22132249.55179562
190,0.0
2,15, 1,15, 0, 4, 0.00,60.00,Sunday
141,21776787.02567479
190,0.0
2,15, 1,15, 0, 5, 0.00,60.00,Sunday
141,21096359.15654254
190,0.0
2,15, 1,15, 0, 6, 0.00,60.00,Sunday
141,20378619.137879528
190,0.0
2,15, 1,15, 0, 7, 0.00,60.00,Sunday
141,19669680.584728282
190,0.0
2,15, 1,15, 0, 8, 0.00,60.00,Sunday
141,19211108.887524493
190,0.0
2,15, 1,15, 0, 9, 0.00,60.00,Sunday
141,18867673.630095653
190,0.0
2,15, 1,15, 0,10, 0.00,60.00,Sunday
141,18841359.148954194
190,0.0
2,15, 1,15, 0,11, 0.00,60.00,Sunday
141,19260247.698314592
190,0.0
2,15, 1,15, 0,12, 0.00,60.00,Sunday
141,20301316.023059234
190,0.0
2,15, 1,15, 0,13, 0.00,60.00,Sunday
141,21067337.99444697
190,0.0
2,15, 1,15, 0,14, 0.00,60.00,Sunday
141,21380998.617365055
190,0.0
2,15, 1,15, 0,15, 0.00,60.00,Sunday
141,21497701.079892855
190,0.0
2,15, 1,15, 0,16, 0.00,60.00,Sunday
141,21232106.78061437
190,0.0
2,15, 1,15, 0,17, 0.00,60.00,Sunday
141,21040277.146465246
190,0.0
2,15, 1,15, 0,18, 0.00,60.00,Sunday
141,21083035.24287485
190,0.0
2,15, 1,15, 0,19, 0.00,60.00,Sunday
141,21230551.44226846
190,0.0
2,15, 1,15, 0,20, 0.00,60.00,Sunday
141,21427319.83000634
190,0.0
2,15, 1,15, 0,21, 0.00,60.00,Sunday
141,21874188.851440493
190,0.0
2,15, 1,15, 0,22, 0.00,60.00,Sunday
141,22060622.23609551
190,0.0
2,15, 1,15, 0,23, 0.00,60.00,Sunday
141,22061027.859023035
190,0.0
2,15, 1,15, 0,24, 0.00,60.00,Sunday
141,22156051.63171987
190,0.0
2,16, 1,16, 0, 1, 0.00,60.00,Monday
141,22566935.78875426
190,0.0
2,16, 1,16, 0, 2, 0.00,60.00,Monday
141,22953334.941096198
190,0.0
2,16, 1,16, 0, 3, 0.00,60.00,Monday
141,23165338.815609995
190,0.0
2,16, 1,16, 0, 4, 0.00,60.00,Monday
141,23319741.25223759
190,0.0
2,16, 1,16, 0, 5, 0.00,60.00,Monday
141,23561355.293049004
190,0.0
2,16, 1,16, 0, 6, 0.00,60.00,Monday
141,23772003.39621207
190,0.0
2,16, 1,16, 0, 7, 0.00,60.00,Monday
141,24212913.3817895
190,0.0
2,16, 1,16, 0, 8, 0.00,60.00,Monday
141,24630772.087390017
190,0.0
2,16, 1,16, 0, 9, 0.00,60.00,Monday
141,24814284.568924915
190,0.0
2,16, 1,16, 0,10, 0.00,60.00,Monday
141,24827215.993689865
190,0.0
2,16, 1,16, 0,11, 0.00,60.00,Monday
141,23912979.676413722
190,0.0
2,16, 1,16, 0,12, 0.00,60.00,Monday
141,23110123.607137512
190,0.0
2,16, 1,16, 0,13, 0.00,60.00,Monday
141,22493649.779134393
190,0.0
2,16, 1,16, 0,14, 0.00,60.00,Monday
141,22095485.805293456
190,0.0
2,16, 1,16, 0,15, 0.00,60.00,Monday
141,22076537.196677983
190,0.0
2,16, 1,16, 0,16, 0.00,60.00,Monday
141,22287556.393595856
190,0.0
2,16, 1,16, 0,17, 0.00,60.00,Monday
141,22763852.8000035
190,0.0
2,16, 1,16, 0,18, 0.00,60.00,Monday
141,23651482.963347405
190,0.0
2,16, 1,16, 0,19, 0.00,60.00,Monday
141,24577779.441765554
190,0.0
2,16, 1,16, 0,20, 0.00,60.00,Monday
141,25044287.971047334
190,0.0
2,16, 1,16, 0,21, 0.00,60.00,Monday
141,25409202.246560585
190,0.0
2,16, 1,16, 0,22, 0.00,60.00,Monday
141,25738420.91872348
190,0.0
2,16, 1,16, 0,23, 0.00,60.00,Monday
141,26238643.073854875
190,0.0
2,16, 1,16, 0,24, 0.00,60.00,Monday
141,26343006.60855477
190,0.0
2,17, 1,17, 0, 1, 0.00,60.00,Tuesday
141,26486043.537161157
190,0.0
2,17, 1,17, 0, 2, 0.00,60.00,Tuesday
141,27087164.796281762
190,0.0
2,17, 1,17, 0, 3, 0.00,60.00,Tuesday
141,27584358.501764495
190,0.0
2,17, 1,17, 0, 4, 0.00,60.00,Tuesday
141,28005679.496319793
190,0.0
2,17, 1,17, 0, 5, 0.00,60.00,Tuesday
141,28478861.5731048
190,0.0
2,17, 1,17, 0, 6, 0.00,60.00,Tuesday
141,28958549.778593805
190,0.0
2,17, 1,17, 0, 7, 0.00,60.00,Tuesday
141,29245141.76538866
190,0.0
2,17, 1,17, 0, 8, 0.00,60.00,Tuesday
141,29399628.678876538
190,0.0
2,17, 1,17, 0, 9, 0.00,60.00,Tuesday
141,29434249.364700377
190,0.0
2,17, 1,17, 0,10, 0.00,60.00,Tuesday
141,28383890.943200078
190,0.0
2,17, 1,17, 0,11, 0.00,60.00,Tuesday
141,26836729.93163748
190,0.0
2,17, 1,17, 0,12, 0.00,60.00,Tuesday
141,25513104.62734902
190,0.0
2,17, 1,17, 0,13, 0.00,60.00,Tuesday
141,24764013.10956547
190,0.0
2,17, 1,17, 0,14, 0.00,60.00,Tuesday
141,24643762.570008352
190,0.0
2,17, 1,17, 0,15, 0.00,60.00,Tuesday
141,24959943.413404025
190,0.0
2,17, 1,17, 0,16, 0.00,60.00,Tuesday
141,25782187.8839202
190,0.0
2,17, 1,17, 0,17, 0.00,60.00,Tuesday
141,26440142.06925049
190,0.0
2,17, 1,17, 0,18, 0.00,60.00,Tuesday
141,26541774.379027948
190,0.0
2,17, 1,17, 0,19, 0.00,60.00,Tuesday
141,26504748.09171943
190,0.0
2,17, 1,17, 0,20, 0.00,60.00,Tuesday
141,26637270.668529596
190,0.0
2,17, 1,17, 0,21, 0.00,60.00,Tuesday
141,26849658.17860459
190,0.0
2,17, 1,17, 0,22, 0.00,60.00,Tuesday
141,26853872.220036395
190,0.0
2,17, 1,17, 0,23, 0.00,60.00,Tuesday
141,26842776.076294247
190,0.0
2,17, 1,17, 0,24, 0.00,60.00,Tuesday
141,27121562.13124477
190,0.0
2,18, 1,18, 0, 1, 0.00,60.00,Wednesday
141,27279575.61126122
190,0.0
2,18, 1,18, 0, 2, 0.00,60.00,Wednesday
141,27380876.280458614
190,0.0
2,18, 1,18, 0, 3, 0.00,60.00,Wednesday
141,27381431.770883694
190,0.0
2,18, 1,18, 0, 4, 0.00,60.00,Wednesday
141,27312566.984701805
190,0.0
2,18, 1,18, 0, 5, 0.00,60.00,Wednesday
141,27298056.39153734
190,0.0
2,18, 1,18, 0, 6, 0.00,60.00,Wednesday
141,27353891.224235304
190,0.0
2,18, 1,18, 0, 7, 0.00,60.00,Wednesday
141,27856321.822977915
190,0.0
2,18, 1,18, 0, 8, 0.00,60.00,Wednesday
141,27994260.3824817
190,0.0
2,18, 1,18, 0, 9, 0.00,60.00,Wednesday
141,28065234.78258012
190,0.0
2,18, 1,18, 0,10, 0.00,60.00,Wednesday
141,28024672.384200662
190,0.0
2,18, 1,18, 0,11, 0.00,60.00,Wednesday
141,27510360.28923828
190,0.0
2,18, 1,18, 0,12, 0.00,60.00,Wednesday
141,27120997.265906006
190,0.0
2,18, 1,18, 0,13, 0.00,60.00,Wednesday
141,27309653.823909804
190,0.0
2,18, 1,18, 0,14, 0.00,60.00,Wednesday
141,27711634.229001317
190,0.0
2,18, 1,18, 0,15, 0.00,60.00,Wednesday
141,27936775.61200133
190,0.0
2,18, 1,18, 0,16, 0.00,60.00,Wednesday
141,28399401.488526147
190,0.0
2,18, 1,18, 0,17, 0.00,60.00,Wednesday
141,28636279.960357137
190,0.0
2,18, 1,18, 0,18, 0.00,60.00,Wednesday
141,28473905.353702605
190,0.0
2,18, 1,18, 0,19, 0.00,60.00,Wednesday
141,28395412.414134443
190,0.0
2,18, 1,18, 0,20, 0.00,60.00,Wednesday
141,28475216.62139526
190,0.0
2,18, 1,18, 0,21, 0.00,60.00,Wednesday
141,28530565.727767833
190,0.0
2,18, 1,18, 0,22, 0.00,60.00,Wednesday
141,28673279.365350932
190,0.0
2,18, 1,18, 0,23, 0.00,60.00,Wednesday
141,28776754.568317957
190,0.0
2,18, 1,18, 0,24, 0.00,60.00,Wednesday
141,28916990.924849838
190,0.0