Program Version,EnergyPlus, Version 24.2.0-94a887817b, YMD=2025.04.24 13:20
1,5,Environment Title[],Latitude[deg],Longitude[deg],Time Zone[],Elevation[m]
2,8,Day of Simulation[],Month[],Day of Month[],DST Indicator[1=yes 0=no],Hour[],StartMinute[],EndMinute[],DayType
3,5,Cumulative Day of Simulation[],Month[],Day of Month[],DST Indicator[1=yes 0=no],DayType  ! When Daily Report Variables Requested
4,2,Cumulative Days of Simulation[],Month[]  ! When Monthly Report Variables Requested
5,1,Cumulative Days of Simulation[] ! When Run Period Report Variables Requested
6,1,Calendar Year of Simulation[] ! When Annual Report Variables Requested
141,1,ZONE_0599100000182276 IDEAL LOADS AIR SYSTEM,Zone Ideal Loads Supply Air Total Heating Energy [J] !Hourly
190,1,ZONE_0599100000182276 IDEAL LOADS AIR SYSTEM,Zone Ideal Loads Supply Air Total Cooling Energy [J] !Hourly
End of Data Dictionary
1,RUN PERIOD 1,  51.96,   4.45,   1.00,  -4.50
2,1, 1, 1, 0, 1, 0.00,60.00,Sunday
141,34926320.26254098
190,0.0
2,1, 1, 1, 0, 2, 0.00,60.00,Sunday
141,36119194.58618817
190,0.0
2,1, 1, 1, 0, 3, 0.00,60.00,Sunday
141,36108085.60834086
190,0.0
2,1, 1, 1, 0, 4, 0.00,60.00,Sunday
141,36987323.22904883
190,0.0
2,1, 1, 1, 0, 5, 0.00,60.00,Sunday
141,37585326.29865954
190,0.0
2,1, 1, 1, 0, 6, 0.00,60.00,Sunday
141,37649872.337970436
190,0.0
2,1, 1, 1, 0, 7, 0.00,60.00,Sunday
141,37754194.30631843
190,0.0
2,1, 1, 1, 0, 8, 0.00,60.00,Sunday
141,37670742.94943947
190,0.0
2,1, 1, 1, 0, 9, 0.00,60.00,Sunday
141,37596433.241324134
190,0.0
2,1, 1, 1, 0,10, 0.00,60.00,Sunday
141,37308722.28981762
190,0.0
2,1, 1, 1, 0,11, 0.00,60.00,Sunday
141,36572541.08332035
190,0.0
2,1, 1, 1, 0,12, 0.00,60.00,Sunday
141,35383042.210520945
190,0.0
2,1, 1, 1, 0,13, 0.00,60.00,Sunday
141,34798874.372036174
190,0.0
2,1, 1, 1, 0,14, 0.00,60.00,Sunday
141,33994357.72445989
190,0.0
2,1, 1, 1, 0,15, 0.00,60.00,Sunday
141,33437531.660396192
190,0.0
2,1, 1, 1, 0,16, 0.00,60.00,Sunday
141,33987528.109953545
190,0.0
2,1, 1, 1, 0,17, 0.00,60.00,Sunday
141,34680454.31149112
190,0.0
2,1, 1, 1, 0,18, 0.00,60.00,Sunday
141,34905332.16202462
190,0.0
2,1, 1, 1, 0,19, 0.00,60.00,Sunday
141,35104127.69521047
190,0.0
2,1, 1, 1, 0,20, 0.00,60.00,Sunday
141,35074496.84175408
190,0.0
2,1, 1, 1, 0,21, 0.00,60.00,Sunday
141,34967186.42380003
190,0.0
2,1, 1, 1, 0,22, 0.00,60.00,Sunday
141,35047273.75950214
190,0.0
2,1, 1, 1, 0,23, 0.00,60.00,Sunday
141,34222981.6987337
190,0.0
2,1, 1, 1, 0,24, 0.00,60.00,Sunday
141,33610474.99379189
190,0.0
2,2, 1, 2, 0, 1, 0.00,60.00,Monday
141,33722033.894060574
190,0.0
2,2, 1, 2, 0, 2, 0.00,60.00,Monday
141,32887881.61969109
190,0.0
2,2, 1, 2, 0, 3, 0.00,60.00,Monday
141,32247184.30990678
190,0.0
2,2, 1, 2, 0, 4, 0.00,60.00,Monday
141,31598351.7843182
190,0.0
2,2, 1, 2, 0, 5, 0.00,60.00,Monday
141,30178738.171984706
190,0.0
2,2, 1, 2, 0, 6, 0.00,60.00,Monday
141,29505474.702290356
190,0.0
2,2, 1, 2, 0, 7, 0.00,60.00,Monday
141,28448732.09261924
190,0.0
2,2, 1, 2, 0, 8, 0.00,60.00,Monday
141,27162242.38578745
190,0.0
2,2, 1, 2, 0, 9, 0.00,60.00,Monday
141,27574908.664746072
190,0.0
2,2, 1, 2, 0,10, 0.00,60.00,Monday
141,28556398.864133216
190,0.0
2,2, 1, 2, 0,11, 0.00,60.00,Monday
141,29230791.924777932
190,0.0
2,2, 1, 2, 0,12, 0.00,60.00,Monday
141,28697746.84219823
190,0.0
2,2, 1, 2, 0,13, 0.00,60.00,Monday
141,28488507.549181193
190,0.0
2,2, 1, 2, 0,14, 0.00,60.00,Monday
141,29174379.32576696
190,0.0
2,2, 1, 2, 0,15, 0.00,60.00,Monday
141,29468874.41587542
190,0.0
2,2, 1, 2, 0,16, 0.00,60.00,Monday
141,30096680.920329027
190,0.0
2,2, 1, 2, 0,17, 0.00,60.00,Monday
141,30702677.96063589
190,0.0
2,2, 1, 2, 0,18, 0.00,60.00,Monday
141,30796186.40492666
190,0.0
2,2, 1, 2, 0,19, 0.00,60.00,Monday
141,31452193.534774147
190,0.0
2,2, 1, 2, 0,20, 0.00,60.00,Monday
141,32046404.15172866
190,0.0
2,2, 1, 2, 0,21, 0.00,60.00,Monday
141,32112760.33286038
190,0.0
2,2, 1, 2, 0,22, 0.00,60.00,Monday
141,32055271.451267768
190,0.0
2,2, 1, 2, 0,23, 0.00,60.00,Monday
141,32038831.706912477
190,0.0
2,2, 1, 2, 0,24, 0.00,60.00,Monday
141,32035391.201143946
190,0.0
2,3, 1, 3, 0, 1, 0.00,60.00,Tuesday
141,32054012.500167765
190,0.0
2,3, 1, 3, 0, 2, 0.00,60.00,Tuesday
141,32015452.031424735
190,0.0
2,3, 1, 3, 0, 3, 0.00,60.00,Tuesday
141,31958815.095380004
190,0.0
2,3, 1, 3, 0, 4, 0.00,60.00,Tuesday
141,32033235.45773569
190,0.0
2,3, 1, 3, 0, 5, 0.00,60.00,Tuesday
141,32799090.571578406
190,0.0
2,3, 1, 3, 0, 6, 0.00,60.00,Tuesday
141,33288007.900359534
190,0.0
2,3, 1, 3, 0, 7, 0.00,60.00,Tuesday
141,33513132.74256177
190,0.0
2,3, 1, 3, 0, 8, 0.00,60.00,Tuesday
141,33425789.849235263
190,0.0
2,3, 1, 3, 0, 9, 0.00,60.00,Tuesday
141,34056277.82767112
190,0.0
2,3, 1, 3, 0,10, 0.00,60.00,Tuesday
141,34354605.235253796
190,0.0
2,3, 1, 3, 0,11, 0.00,60.00,Tuesday
141,34423567.6905326
190,0.0
2,3, 1, 3, 0,12, 0.00,60.00,Tuesday
141,34611440.42030783
190,0.0
2,3, 1, 3, 0,13, 0.00,60.00,Tuesday
141,35597035.975990005
190,0.0
2,3, 1, 3, 0,14, 0.00,60.00,Tuesday
141,36136267.292454794
190,0.0
2,3, 1, 3, 0,15, 0.00,60.00,Tuesday
141,36012636.877087556
190,0.0
2,3, 1, 3, 0,16, 0.00,60.00,Tuesday
141,35901674.32208274
190,0.0
2,3, 1, 3, 0,17, 0.00,60.00,Tuesday
141,35932730.652204186
190,0.0
2,3, 1, 3, 0,18, 0.00,60.00,Tuesday
141,36012567.9852028
190,0.0
2,3, 1, 3, 0,19, 0.00,60.00,Tuesday
141,35852643.69437194
190,0.0
2,3, 1, 3, 0,20, 0.00,60.00,Tuesday
141,35073061.99165184
190,0.0
2,3, 1, 3, 0,21, 0.00,60.00,Tuesday
141,32967020.695927747
190,0.0
2,3, 1, 3, 0,22, 0.00,60.00,Tuesday
141,31837289.938097633
190,0.0
2,3, 1, 3, 0,23, 0.00,60.00,Tuesday
141,32642980.708036043
190,0.0
2,3, 1, 3, 0,24, 0.00,60.00,Tuesday
141,34017646.97281085
190,0.0
2,4, 1, 4, 0, 1, 0.00,60.00,Wednesday
141,34703181.78939189
190,0.0
2,4, 1, 4, 0, 2, 0.00,60.00,Wednesday
141,34596138.29142479
190,0.0
2,4, 1, 4, 0, 3, 0.00,60.00,Wednesday
141,34389605.68648337
190,0.0
2,4, 1, 4, 0, 4, 0.00,60.00,Wednesday
141,34621598.39331772
190,0.0
2,4, 1, 4, 0, 5, 0.00,60.00,Wednesday
141,35533729.825988956
190,0.0
2,4, 1, 4, 0, 6, 0.00,60.00,Wednesday
141,35292927.64430736
190,0.0
2,4, 1, 4, 0, 7, 0.00,60.00,Wednesday
141,35247125.10966745
190,0.0
2,4, 1, 4, 0, 8, 0.00,60.00,Wednesday
141,35611652.44726521
190,0.0
2,4, 1, 4, 0, 9, 0.00,60.00,Wednesday
141,35874690.052406006
190,0.0
2,4, 1, 4, 0,10, 0.00,60.00,Wednesday
141,36087555.87532441
190,0.0
2,4, 1, 4, 0,11, 0.00,60.00,Wednesday
141,34435563.28050202
190,0.0
2,4, 1, 4, 0,12, 0.00,60.00,Wednesday
141,31639807.14377196
190,0.0
2,4, 1, 4, 0,13, 0.00,60.00,Wednesday
141,30889696.97000453
190,0.0
2,4, 1, 4, 0,14, 0.00,60.00,Wednesday
141,30790803.162468255
190,0.0
2,4, 1, 4, 0,15, 0.00,60.00,Wednesday
141,30526375.496056348
190,0.0
2,4, 1, 4, 0,16, 0.00,60.00,Wednesday
141,31680107.180390738
190,0.0
2,4, 1, 4, 0,17, 0.00,60.00,Wednesday
141,33742951.62895338
190,0.0
2,4, 1, 4, 0,18, 0.00,60.00,Wednesday
141,35529902.833763935
190,0.0
2,4, 1, 4, 0,19, 0.00,60.00,Wednesday
141,37344082.534828916
190,0.0
2,4, 1, 4, 0,20, 0.00,60.00,Wednesday
141,38291577.849374816
190,0.0
2,4, 1, 4, 0,21, 0.00,60.00,Wednesday
141,38711650.69429972
190,0.0
2,4, 1, 4, 0,22, 0.00,60.00,Wednesday
141,39573562.509298004
190,0.0
2,4, 1, 4, 0,23, 0.00,60.00,Wednesday
141,39165058.97010493
190,0.0
2,4, 1, 4, 0,24, 0.00,60.00,Wednesday
141,38489554.27435015
190,0.0
2,5, 1, 5, 0, 1, 0.00,60.00,Thursday
141,38691171.98832876
190,0.0
2,5, 1, 5, 0, 2, 0.00,60.00,Thursday
141,38213923.609850354
190,0.0
2,5, 1, 5, 0, 3, 0.00,60.00,Thursday
141,37755431.81304684
190,0.0
2,5, 1, 5, 0, 4, 0.00,60.00,Thursday
141,37820318.26735641
190,0.0
2,5, 1, 5, 0, 5, 0.00,60.00,Thursday
141,37317045.89939284
190,0.0
2,5, 1, 5, 0, 6, 0.00,60.00,Thursday
141,37106222.347979456
190,0.0
2,5, 1, 5, 0, 7, 0.00,60.00,Thursday
141,37437458.73234457
190,0.0
2,5, 1, 5, 0, 8, 0.00,60.00,Thursday
141,37733811.35173308
190,0.0
2,5, 1, 5, 0, 9, 0.00,60.00,Thursday
141,37848587.27257958
190,0.0
2,5, 1, 5, 0,10, 0.00,60.00,Thursday
141,38402731.741660066
190,0.0
2,5, 1, 5, 0,11, 0.00,60.00,Thursday
141,38272238.05742132
190,0.0
2,5, 1, 5, 0,12, 0.00,60.00,Thursday
141,37084582.63349569
190,0.0
2,5, 1, 5, 0,13, 0.00,60.00,Thursday
141,36676517.371602654
190,0.0
2,5, 1, 5, 0,14, 0.00,60.00,Thursday
141,35828499.702327274
190,0.0
2,5, 1, 5, 0,15, 0.00,60.00,Thursday
141,35158559.48867709
190,0.0
2,5, 1, 5, 0,16, 0.00,60.00,Thursday
141,35730764.357969865
190,0.0
2,5, 1, 5, 0,17, 0.00,60.00,Thursday
141,35604340.56559335
190,0.0
2,5, 1, 5, 0,18, 0.00,60.00,Thursday
141,35245627.116534285
190,0.0
2,5, 1, 5, 0,19, 0.00,60.00,Thursday
141,35466424.845339864
190,0.0
2,5, 1, 5, 0,20, 0.00,60.00,Thursday
141,35437145.003513634
190,0.0
2,5, 1, 5, 0,21, 0.00,60.00,Thursday
141,35322663.346170634
190,0.0
2,5, 1, 5, 0,22, 0.00,60.00,Thursday
141,35360057.935428694
190,0.0
2,5, 1, 5, 0,23, 0.00,60.00,Thursday
141,35553601.372143045
190,0.0
2,5, 1, 5, 0,24, 0.00,60.00,Thursday
141,35762788.92350055
190,0.0
2,6, 1, 6, 0, 1, 0.00,60.00,Friday
141,35904552.97399478
190,0.0
2,6, 1, 6, 0, 2, 0.00,60.00,Friday
141,36039806.60590064
190,0.0
2,6, 1, 6, 0, 3, 0.00,60.00,Friday
141,36847690.75603818
190,0.0
2,6, 1, 6, 0, 4, 0.00,60.00,Friday
141,37629531.33638383
190,0.0
2,6, 1, 6, 0, 5, 0.00,60.00,Friday
141,38040996.05831072
190,0.0
2,6, 1, 6, 0, 6, 0.00,60.00,Friday
141,38539104.22597325
190,0.0
2,6, 1, 6, 0, 7, 0.00,60.00,Friday
141,39270352.70081802
190,0.0
2,6, 1, 6, 0, 8, 0.00,60.00,Friday
141,39960608.456464685
190,0.0
2,6, 1, 6, 0, 9, 0.00,60.00,Friday
141,40789815.38746161
190,0.0
2,6, 1, 6, 0,10, 0.00,60.00,Friday
141,41281661.03891164
190,0.0
2,6, 1, 6, 0,11, 0.00,60.00,Friday
141,40731017.15267691
190,0.0
2,6, 1, 6, 0,12, 0.00,60.00,Friday
141,39870213.95279272
190,0.0
2,6, 1, 6, 0,13, 0.00,60.00,Friday
141,39461810.4755626
190,0.0
2,6, 1, 6, 0,14, 0.00,60.00,Friday
141,39296707.72341868
190,0.0
2,6, 1, 6, 0,15, 0.00,60.00,Friday
141,39065511.84989362
190,0.0
2,6, 1, 6, 0,16, 0.00,60.00,Friday
141,38527189.712282136
190,0.0
2,6, 1, 6, 0,17, 0.00,60.00,Friday
141,37971046.18432582
190,0.0
2,6, 1, 6, 0,18, 0.00,60.00,Friday
141,37707402.24973938
190,0.0
2,6, 1, 6, 0,19, 0.00,60.00,Friday
141,37399085.7748807
190,0.0
2,6, 1, 6, 0,20, 0.00,60.00,Friday
141,36644612.9612021
190,0.0
2,6, 1, 6, 0,21, 0.00,60.00,Friday
141,34752066.59335353
190,0.0
2,6, 1, 6, 0,22, 0.00,60.00,Friday
141,32486335.838268027
190,0.0
2,6, 1, 6, 0,23, 0.00,60.00,Friday
141,31475472.889802545
190,0.0
2,6, 1, 6, 0,24, 0.00,60.00,Friday
141,31702624.782963775
190,0.0
2,7, 1, 7, 0, 1, 0.00,60.00,Saturday
141,33503423.56419304
190,0.0
2,7, 1, 7, 0, 2, 0.00,60.00,Saturday
141,35298013.6544561
190,0.0
2,7, 1, 7, 0, 3, 0.00,60.00,Saturday
141,35044677.21322584
190,0.0
2,7, 1, 7, 0, 4, 0.00,60.00,Saturday
141,35188734.94367723
190,0.0
2,7, 1, 7, 0, 5, 0.00,60.00,Saturday
141,36412334.56786341
190,0.0
2,7, 1, 7, 0, 6, 0.00,60.00,Saturday
141,37368365.82288211
190,0.0
2,7, 1, 7, 0, 7, 0.00,60.00,Saturday
141,37926134.147256665
190,0.0
2,7, 1, 7, 0, 8, 0.00,60.00,Saturday
141,38197300.071721554
190,0.0
2,7, 1, 7, 0, 9, 0.00,60.00,Saturday
141,37504499.71256238
190,0.0
2,7, 1, 7, 0,10, 0.00,60.00,Saturday
141,36882563.602549694
190,0.0
2,7, 1, 7, 0,11, 0.00,60.00,Saturday
141,35072051.275082804
190,0.0
2,7, 1, 7, 0,12, 0.00,60.00,Saturday
141,33249366.524987362
190,0.0
2,7, 1, 7, 0,13, 0.00,60.00,Saturday
141,31929805.483433094
190,0.0
2,7, 1, 7, 0,14, 0.00,60.00,Saturday
141,31276129.858534545
190,0.0
2,7, 1, 7, 0,15, 0.00,60.00,Saturday
141,31593503.49799864
190,0.0
2,7, 1, 7, 0,16, 0.00,60.00,Saturday
141,32238304.470119618
190,0.0
2,7, 1, 7, 0,17, 0.00,60.00,Saturday
141,32784191.918053515
190,0.0
2,7, 1, 7, 0,18, 0.00,60.00,Saturday
141,33703392.977870815
190,0.0
2,7, 1, 7, 0,19, 0.00,60.00,Saturday
141,34559937.05182412
190,0.0
2,7, 1, 7, 0,20, 0.00,60.00,Saturday
141,35379608.47567514
190,0.0
2,7, 1, 7, 0,21, 0.00,60.00,Saturday
141,35961196.61418873
190,0.0
2,7, 1, 7, 0,22, 0.00,60.00,Saturday
141,35987218.47558562
190,0.0
2,7, 1, 7, 0,23, 0.00,60.00,Saturday
141,36083476.59824916
190,0.0
2,7, 1, 7, 0,24, 0.00,60.00,Saturday
141,36017533.253067
190,0.0
2,8, 1, 8, 0, 1, 0.00,60.00,Sunday
141,35461554.53796865
190,0.0
2,8, 1, 8, 0, 2, 0.00,60.00,Sunday
141,34812248.69990635
190,0.0
2,8, 1, 8, 0, 3, 0.00,60.00,Sunday
141,34221641.63761174
190,0.0
2,8, 1, 8, 0, 4, 0.00,60.00,Sunday
141,33386634.194458
190,0.0
2,8, 1, 8, 0, 5, 0.00,60.00,Sunday
141,32376889.515564375
190,0.0
2,8, 1, 8, 0, 6, 0.00,60.00,Sunday
141,31616023.660214406
190,0.0
2,8, 1, 8, 0, 7, 0.00,60.00,Sunday
141,31033518.17576709
190,0.0
2,8, 1, 8, 0, 8, 0.00,60.00,Sunday
141,30534170.147986196
190,0.0
2,8, 1, 8, 0, 9, 0.00,60.00,Sunday
141,30014850.03327877
190,0.0
2,8, 1, 8, 0,10, 0.00,60.00,Sunday
141,29843613.342564486
190,0.0
2,8, 1, 8, 0,11, 0.00,60.00,Sunday
141,29712833.622418907
190,0.0
2,8, 1, 8, 0,12, 0.00,60.00,Sunday
141,29812442.929923788
190,0.0
2,8, 1, 8, 0,13, 0.00,60.00,Sunday
141,29716120.901097756
190,0.0
2,8, 1, 8, 0,14, 0.00,60.00,Sunday
141,29835704.18228929
190,0.0
2,8, 1, 8, 0,15, 0.00,60.00,Sunday
141,30941410.603215456
190,0.0
2,8, 1, 8, 0,16, 0.00,60.00,Sunday
141,31737804.19313126
190,0.0
2,8, 1, 8, 0,17, 0.00,60.00,Sunday
141,31775982.219396465
190,0.0
2,8, 1, 8, 0,18, 0.00,60.00,Sunday
141,32125794.919937983
190,0.0
2,8, 1, 8, 0,19, 0.00,60.00,Sunday
141,31929678.115432385
190,0.0
2,8, 1, 8, 0,20, 0.00,60.00,Sunday
141,31254941.150593128
190,0.0
2,8, 1, 8, 0,21, 0.00,60.00,Sunday
141,30767085.861572348
190,0.0
2,8, 1, 8, 0,22, 0.00,60.00,Sunday
141,30896043.960857864
190,0.0
2,8, 1, 8, 0,23, 0.00,60.00,Sunday
141,31016181.304729328
190,0.0
2,8, 1, 8, 0,24, 0.00,60.00,Sunday
141,31404566.880656593
190,0.0
2,9, 1, 9, 0, 1, 0.00,60.00,Monday
141,31472131.17734549
190,0.0
2,9, 1, 9, 0, 2, 0.00,60.00,Monday
141,31509337.052118726
190,0.0
2,9, 1, 9, 0, 3, 0.00,60.00,Monday
141,31404428.269349523
190,0.0
2,9, 1, 9, 0, 4, 0.00,60.00,Monday
141,31152747.91246696
190,0.0
2,9, 1, 9, 0, 5, 0.00,60.00,Monday
141,30598532.688942224
190,0.0
2,9, 1, 9, 0, 6, 0.00,60.00,Monday
141,30038331.273348868
190,0.0
2,9, 1, 9, 0, 7, 0.00,60.00,Monday
141,29632795.709001705
190,0.0
2,9, 1, 9, 0, 8, 0.00,60.00,Monday
141,29410968.88107808
190,0.0
2,9, 1, 9, 0, 9, 0.00,60.00,Monday
141,28811690.09958564
190,0.0
2,9, 1, 9, 0,10, 0.00,60.00,Monday
141,27361136.727377024
190,0.0
2,9, 1, 9, 0,11, 0.00,60.00,Monday
141,26125561.18356034
190,0.0
2,9, 1, 9, 0,12, 0.00,60.00,Monday
141,25441939.31725341
190,0.0
2,9, 1, 9, 0,13, 0.00,60.00,Monday
141,24878616.068659488
190,0.0
2,9, 1, 9, 0,14, 0.00,60.00,Monday
141,24469817.506552957
190,0.0
2,9, 1, 9, 0,15, 0.00,60.00,Monday
141,24331362.67159992
190,0.0
2,9, 1, 9, 0,16, 0.00,60.00,Monday
141,24626050.11088248
190,0.0
2,9, 1, 9, 0,17, 0.00,60.00,Monday
141,25612599.70313894
190,0.0
2,9, 1, 9, 0,18, 0.00,60.00,Monday
141,26543170.842754025
190,0.0
2,9, 1, 9, 0,19, 0.00,60.00,Monday
141,26470099.86022657
190,0.0
2,9, 1, 9, 0,20, 0.00,60.00,Monday
141,25173644.67483887
190,0.0
2,9, 1, 9, 0,21, 0.00,60.00,Monday
141,23862619.229837082
190,0.0
2,9, 1, 9, 0,22, 0.00,60.00,Monday
141,23057788.076760765
190,0.0
2,9, 1, 9, 0,23, 0.00,60.00,Monday
141,22905663.201527543
190,0.0
2,9, 1, 9, 0,24, 0.00,60.00,Monday
141,22985349.797538098
190,0.0
2,10, 1,10, 0, 1, 0.00,60.00,Tuesday
141,23343199.790917844
190,0.0
2,10, 1,10, 0, 2, 0.00,60.00,Tuesday
141,23587574.955959074
190,0.0
2,10, 1,10, 0, 3, 0.00,60.00,Tuesday
141,23630468.95087693
190,0.0
2,10, 1,10, 0, 4, 0.00,60.00,Tuesday
141,24033221.780622832
190,0.0
2,10, 1,10, 0, 5, 0.00,60.00,Tuesday
141,24182985.744787294
190,0.0
2,10, 1,10, 0, 6, 0.00,60.00,Tuesday
141,24234104.308901038
190,0.0
2,10, 1,10, 0, 7, 0.00,60.00,Tuesday
141,24294740.22142109
190,0.0
2,10, 1,10, 0, 8, 0.00,60.00,Tuesday
141,24161330.032126416
190,0.0
2,10, 1,10, 0, 9, 0.00,60.00,Tuesday
141,23966766.976160925
190,0.0
2,10, 1,10, 0,10, 0.00,60.00,Tuesday
141,23698342.26990313
190,0.0
2,10, 1,10, 0,11, 0.00,60.00,Tuesday
141,23301450.4592659
190,0.0
2,10, 1,10, 0,12, 0.00,60.00,Tuesday
141,22845290.54081682
190,0.0
2,10, 1,10, 0,13, 0.00,60.00,Tuesday
141,22776119.757526163
190,0.0
2,10, 1,10, 0,14, 0.00,60.00,Tuesday
141,24474795.0619281
190,0.0
2,10, 1,10, 0,15, 0.00,60.00,Tuesday
141,25848076.949830946
190,0.0
2,10, 1,10, 0,16, 0.00,60.00,Tuesday
141,26694263.27804709
190,0.0
2,10, 1,10, 0,17, 0.00,60.00,Tuesday
141,27563618.534815047
190,0.0
2,10, 1,10, 0,18, 0.00,60.00,Tuesday
141,28688448.59239597
190,0.0
2,10, 1,10, 0,19, 0.00,60.00,Tuesday
141,29280353.121698447
190,0.0
2,10, 1,10, 0,20, 0.00,60.00,Tuesday
141,29720510.096708447
190,0.0
2,10, 1,10, 0,21, 0.00,60.00,Tuesday
141,30419244.99988144
190,0.0
2,10, 1,10, 0,22, 0.00,60.00,Tuesday
141,30811242.667800374
190,0.0
2,10, 1,10, 0,23, 0.00,60.00,Tuesday
141,30543975.46103146
190,0.0
2,10, 1,10, 0,24, 0.00,60.00,Tuesday
141,30991140.383039385
190,0.0
2,11, 1,11, 0, 1, 0.00,60.00,Wednesday
141,31047633.093888745
190,0.0
2,11, 1,11, 0, 2, 0.00,60.00,Wednesday
141,31101577.01945516
190,0.0
2,11, 1,11, 0, 3, 0.00,60.00,Wednesday
141,31337064.734375335
190,0.0
2,11, 1,11, 0, 4, 0.00,60.00,Wednesday
141,30960259.574401125
190,0.0
2,11, 1,11, 0, 5, 0.00,60.00,Wednesday
141,30684707.60139468
190,0.0
2,11, 1,11, 0, 6, 0.00,60.00,Wednesday
141,30568853.335022457
190,0.0
2,11, 1,11, 0, 7, 0.00,60.00,Wednesday
141,30649108.329300348
190,0.0
2,11, 1,11, 0, 8, 0.00,60.00,Wednesday
141,30751837.401379805
190,0.0
2,11, 1,11, 0, 9, 0.00,60.00,Wednesday
141,30669929.579322338
190,0.0
2,11, 1,11, 0,10, 0.00,60.00,Wednesday
141,30461933.061676666
190,0.0
2,11, 1,11, 0,11, 0.00,60.00,Wednesday
141,30116378.85259314
190,0.0
2,11, 1,11, 0,12, 0.00,60.00,Wednesday
141,29554173.909441963
190,0.0
2,11, 1,11, 0,13, 0.00,60.00,Wednesday
141,29122425.369542867
190,0.0
2,11, 1,11, 0,14, 0.00,60.00,Wednesday
141,28942817.32864828
190,0.0
2,11, 1,11, 0,15, 0.00,60.00,Wednesday
141,28901193.925901167
190,0.0
2,11, 1,11, 0,16, 0.00,60.00,Wednesday
141,28923821.25927243
190,0.0
2,11, 1,11, 0,17, 0.00,60.00,Wednesday
141,28627118.521262784
190,0.0
2,11, 1,11, 0,18, 0.00,60.00,Wednesday
141,28343226.86210968
190,0.0
2,11, 1,11, 0,19, 0.00,60.00,Wednesday
141,28148699.064876523
190,0.0
2,11, 1,11, 0,20, 0.00,60.00,Wednesday
141,28133385.192803867
190,0.0
2,11, 1,11, 0,21, 0.00,60.00,Wednesday
141,28130105.24516045
190,0.0
2,11, 1,11, 0,22, 0.00,60.00,Wednesday
141,27524998.20593614
190,0.0
2,11, 1,11, 0,23, 0.00,60.00,Wednesday
141,27058355.07852544
190,0.0
2,11, 1,11, 0,24, 0.00,60.00,Wednesday
141,27097985.000083033
190,0.0
2,12, 1,12, 0, 1, 0.00,60.00,Thursday
141,27327105.05271254
190,0.0
2,12, 1,12, 0, 2, 0.00,60.00,Thursday
141,27362923.79293465
190,0.0
2,12, 1,12, 0, 3, 0.00,60.00,Thursday
141,27225939.448087215
190,0.0
2,12, 1,12, 0, 4, 0.00,60.00,Thursday
141,27252968.70098069
190,0.0
2,12, 1,12, 0, 5, 0.00,60.00,Thursday
141,27472645.691729236
190,0.0
2,12, 1,12, 0, 6, 0.00,60.00,Thursday
141,27982144.085411396
190,0.0
2,12, 1,12, 0, 7, 0.00,60.00,Thursday
141,28260281.404225398
190,0.0
2,12, 1,12, 0, 8, 0.00,60.00,Thursday
141,28332786.99412775
190,0.0
2,12, 1,12, 0, 9, 0.00,60.00,Thursday
141,27984032.31226683
190,0.0
2,12, 1,12, 0,10, 0.00,60.00,Thursday
141,27218702.95172815
190,0.0
2,12, 1,12, 0,11, 0.00,60.00,Thursday
141,26636142.46356711
190,0.0
2,12, 1,12, 0,12, 0.00,60.00,Thursday
141,26304085.314903453
190,0.0
2,12, 1,12, 0,13, 0.00,60.00,Thursday
141,25867395.707801603
190,0.0
2,12, 1,12, 0,14, 0.00,60.00,Thursday
141,25395441.685219236
190,0.0
2,12, 1,12, 0,15, 0.00,60.00,Thursday
141,25379267.844953746
190,0.0
2,12, 1,12, 0,16, 0.00,60.00,Thursday
141,25569219.14369162
190,0.0
2,12, 1,12, 0,17, 0.00,60.00,Thursday
141,26495998.94679297
190,0.0
2,12, 1,12, 0,18, 0.00,60.00,Thursday
141,27037282.52309139
190,0.0
2,12, 1,12, 0,19, 0.00,60.00,Thursday
141,26816524.36027239
190,0.0
2,12, 1,12, 0,20, 0.00,60.00,Thursday
141,26301035.929830976
190,0.0
2,12, 1,12, 0,21, 0.00,60.00,Thursday
141,26089414.993001435
190,0.0
2,12, 1,12, 0,22, 0.00,60.00,Thursday
141,25739934.63073831
190,0.0
2,12, 1,12, 0,23, 0.00,60.00,Thursday
141,25607740.466980938
190,0.0
2,12, 1,12, 0,24, 0.00,60.00,Thursday
141,25631440.775287993
190,0.0
2,13, 1,13, 0, 1, 0.00,60.00,Friday
141,25403617.03380272
190,0.0
2,13, 1,13, 0, 2, 0.00,60.00,Friday
141,25195287.15892013
190,0.0
2,13, 1,13, 0, 3, 0.00,60.00,Friday
141,24884768.727772944
190,0.0
2,13, 1,13, 0, 4, 0.00,60.00,Friday
141,24696712.94458706
190,0.0
2,13, 1,13, 0, 5, 0.00,60.00,Friday
141,24679381.465085052
190,0.0
2,13, 1,13, 0, 6, 0.00,60.00,Friday
141,24741695.663370334
190,0.0
2,13, 1,13, 0, 7, 0.00,60.00,Friday
141,24936131.04433052
190,0.0
2,13, 1,13, 0, 8, 0.00,60.00,Friday
141,24948997.82843007
190,0.0
2,13, 1,13, 0, 9, 0.00,60.00,Friday
141,24717695.31827666
190,0.0
2,13, 1,13, 0,10, 0.00,60.00,Friday
141,25295073.590898313
190,0.0
2,13, 1,13, 0,11, 0.00,60.00,Friday
141,25940948.58378715
190,0.0
2,13, 1,13, 0,12, 0.00,60.00,Friday
141,25980724.602906395
190,0.0
2,13, 1,13, 0,13, 0.00,60.00,Friday
141,26054576.14995969
190,0.0
2,13, 1,13, 0,14, 0.00,60.00,Friday
141,26447816.835313033
190,0.0
2,13, 1,13, 0,15, 0.00,60.00,Friday
141,26656335.37788292
190,0.0
2,13, 1,13, 0,16, 0.00,60.00,Friday
141,26563736.942694165
190,0.0
2,13, 1,13, 0,17, 0.00,60.00,Friday
141,26411950.299980797
190,0.0
2,13, 1,13, 0,18, 0.00,60.00,Friday
141,26331916.510547154
190,0.0
2,13, 1,13, 0,19, 0.00,60.00,Friday
141,26698477.093947113
190,0.0
2,13, 1,13, 0,20, 0.00,60.00,Friday
141,27360940.727268748
190,0.0
2,13, 1,13, 0,21, 0.00,60.00,Friday
141,27951977.26643471
190,0.0
2,13, 1,13, 0,22, 0.00,60.00,Friday
141,28321577.480301153
190,0.0
2,13, 1,13, 0,23, 0.00,60.00,Friday
141,28171038.221218973
190,0.0
2,13, 1,13, 0,24, 0.00,60.00,Friday
141,29734163.533605527
190,0.0
2,14, 1,14, 0, 1, 0.00,60.00,Saturday
141,30806879.742115032
190,0.0
2,14, 1,14, 0, 2, 0.00,60.00,Saturday
141,30346034.170490902
190,0.0
2,14, 1,14, 0, 3, 0.00,60.00,Saturday
141,30428767.370742366
190,0.0
2,14, 1,14, 0, 4, 0.00,60.00,Saturday
141,30250430.045616027
190,0.0
2,14, 1,14, 0, 5, 0.00,60.00,Saturday
141,30194123.96151635
190,0.0
2,14, 1,14, 0, 6, 0.00,60.00,Saturday
141,31332167.48935513
190,0.0
2,14, 1,14, 0, 7, 0.00,60.00,Saturday
141,32183483.83190907
190,0.0
2,14, 1,14, 0, 8, 0.00,60.00,Saturday
141,31888584.56711282
190,0.0
2,14, 1,14, 0, 9, 0.00,60.00,Saturday
141,32331931.391054515
190,0.0
2,14, 1,14, 0,10, 0.00,60.00,Saturday
141,32934722.535650827
190,0.0
2,14, 1,14, 0,11, 0.00,60.00,Saturday
141,32664299.50796376
190,0.0
2,14, 1,14, 0,12, 0.00,60.00,Saturday
141,32269152.03763311
190,0.0
2,14, 1,14, 0,13, 0.00,60.00,Saturday
141,31594646.157745775
190,0.0
2,14, 1,14, 0,14, 0.00,60.00,Saturday
141,30242386.387520112
190,0.0
2,14, 1,14, 0,15, 0.00,60.00,Saturday
141,30069656.15451934
190,0.0
2,14, 1,14, 0,16, 0.00,60.00,Saturday
141,30373989.47039033
190,0.0
2,14, 1,14, 0,17, 0.00,60.00,Saturday
141,30918208.82867016
190,0.0
2,14, 1,14, 0,18, 0.00,60.00,Saturday
141,31924457.348443132
190,0.0
2,14, 1,14, 0,19, 0.00,60.00,Saturday
141,31950055.733841736
190,0.0
2,14, 1,14, 0,20, 0.00,60.00,Saturday
141,32087693.83978784
190,0.0
2,14, 1,14, 0,21, 0.00,60.00,Saturday
141,31902796.914717123
190,0.0
2,14, 1,14, 0,22, 0.00,60.00,Saturday
141,31559007.04950503
190,0.0
2,14, 1,14, 0,23, 0.00,60.00,Saturday
141,31312455.17432344
190,0.0
2,14, 1,14, 0,24, 0.00,60.00,Saturday
141,31211273.73188372
190,0.0
2,15, 1,15, 0, 1, 0.00,60.00,Sunday
141,30610556.13816101
190,0.0
2,15, 1,15, 0, 2, 0.00,60.00,Sunday
141,29181349.68952878
190,0.0
2,15, 1,15, 0, 3, 0.00,60.00,Sunday
141,28492519.457094014
190,0.0
2,15, 1,15, 0, 4, 0.00,60.00,Sunday
141,28014123.807113163
190,0.0
2,15, 1,15, 0, 5, 0.00,60.00,Sunday
141,27124947.135712314
190,0.0
2,15, 1,15, 0, 6, 0.00,60.00,Sunday
141,26190166.051202003
190,0.0
2,15, 1,15, 0, 7, 0.00,60.00,Sunday
141,25270074.011453636
190,0.0
2,15, 1,15, 0, 8, 0.00,60.00,Sunday
141,24671864.584065247
190,0.0
2,15, 1,15, 0, 9, 0.00,60.00,Sunday
141,24226498.81014593
190,0.0
2,15, 1,15, 0,10, 0.00,60.00,Sunday
141,24190701.072310265
190,0.0
2,15, 1,15, 0,11, 0.00,60.00,Sunday
141,24726385.285433367
190,0.0
2,15, 1,15, 0,12, 0.00,60.00,Sunday
141,26056694.168651678
190,0.0
2,15, 1,15, 0,13, 0.00,60.00,Sunday
141,27048389.04007137
190,0.0
2,15, 1,15, 0,14, 0.00,60.00,Sunday
141,27477278.64083447
190,0.0
2,15, 1,15, 0,15, 0.00,60.00,Sunday
141,27665349.51118328
190,0.0
2,15, 1,15, 0,16, 0.00,60.00,Sunday
141,27376244.412672665
190,0.0
2,15, 1,15, 0,17, 0.00,60.00,Sunday
141,27183824.36718867
190,0.0
2,15, 1,15, 0,18, 0.00,60.00,Sunday
141,27288897.298491467
190,0.0
2,15, 1,15, 0,19, 0.00,60.00,Sunday
141,27525430.248286188
190,0.0
2,15, 1,15, 0,20, 0.00,60.00,Sunday
141,27821552.67697292
190,0.0
2,15, 1,15, 0,21, 0.00,60.00,Sunday
141,28430196.027775846
190,0.0
2,15, 1,15, 0,22, 0.00,60.00,Sunday
141,28706144.335895814
190,0.0
2,15, 1,15, 0,23, 0.00,60.00,Sunday
141,28743448.224386387
190,0.0
2,15, 1,15, 0,24, 0.00,60.00,Sunday
141,28895726.81227817
190,0.0
2,16, 1,16, 0, 1, 0.00,60.00,Monday
141,29441903.658533324
190,0.0
2,16, 1,16, 0, 2, 0.00,60.00,Monday
141,29951399.65763239
190,0.0
2,16, 1,16, 0, 3, 0.00,60.00,Monday
141,30234483.81409317
190,0.0
2,16, 1,16, 0, 4, 0.00,60.00,Monday
141,30438679.002233043
190,0.0
2,16, 1,16, 0, 5, 0.00,60.00,Monday
141,30747164.45359506
190,0.0
2,16, 1,16, 0, 6, 0.00,60.00,Monday
141,31011015.208214693
190,0.0
2,16, 1,16, 0, 7, 0.00,60.00,Monday
141,31560824.715489548
190,0.0
2,16, 1,16, 0, 8, 0.00,60.00,Monday
141,32077014.629501294
190,0.0
2,16, 1,16, 0, 9, 0.00,60.00,Monday
141,32292749.04129897
190,0.0
2,16, 1,16, 0,10, 0.00,60.00,Monday
141,32289001.95633734
190,0.0
2,16, 1,16, 0,11, 0.00,60.00,Monday
141,31111129.999005355
190,0.0
2,16, 1,16, 0,12, 0.00,60.00,Monday
141,30071645.496681485
190,0.0
2,16, 1,16, 0,13, 0.00,60.00,Monday
141,29266086.948277425
190,0.0
2,16, 1,16, 0,14, 0.00,60.00,Monday
141,28736412.365130913
190,0.0
2,16, 1,16, 0,15, 0.00,60.00,Monday
141,28688595.01247438
190,0.0
2,16, 1,16, 0,16, 0.00,60.00,Monday
141,28937734.79638066
190,0.0
2,16, 1,16, 0,17, 0.00,60.00,Monday
141,29528482.44868859
190,0.0
2,16, 1,16, 0,18, 0.00,60.00,Monday
141,30645265.328179628
190,0.0
2,16, 1,16, 0,19, 0.00,60.00,Monday
141,31816547.67176607
190,0.0
2,16, 1,16, 0,20, 0.00,60.00,Monday
141,32410875.282800727
190,0.0
2,16, 1,16, 0,21, 0.00,60.00,Monday
141,32879001.823986705
190,0.0
2,16, 1,16, 0,22, 0.00,60.00,Monday
141,33302545.079601962
190,0.0
2,16, 1,16, 0,23, 0.00,60.00,Monday
141,33941602.77931318
190,0.0
2,16, 1,16, 0,24, 0.00,60.00,Monday
141,34079370.10599709
190,0.0
2,17, 1,17, 0, 1, 0.00,60.00,Tuesday
141,34264821.55259406
190,0.0
2,17, 1,17, 0, 2, 0.00,60.00,Tuesday
141,35027861.802704446
190,0.0
2,17, 1,17, 0, 3, 0.00,60.00,Tuesday
141,35658020.94098611
190,0.0
2,17, 1,17, 0, 4, 0.00,60.00,Tuesday
141,36190141.13969413
190,0.0
2,17, 1,17, 0, 5, 0.00,60.00,Tuesday
141,36784512.88467298
190,0.0
2,17, 1,17, 0, 6, 0.00,60.00,Tuesday
141,37381422.81328914
190,0.0
2,17, 1,17, 0, 7, 0.00,60.00,Tuesday
141,37727640.26276221
190,0.0
2,17, 1,17, 0, 8, 0.00,60.00,Tuesday
141,37899925.80520076
190,0.0
2,17, 1,17, 0, 9, 0.00,60.00,Tuesday
141,37913139.676109605
190,0.0
2,17, 1,17, 0,10, 0.00,60.00,Tuesday
141,36548108.79561313
190,0.0
2,17, 1,17, 0,11, 0.00,60.00,Tuesday
141,34548988.181187615
190,0.0
2,17, 1,17, 0,12, 0.00,60.00,Tuesday
141,32827281.596648946
190,0.0
2,17, 1,17, 0,13, 0.00,60.00,Tuesday
141,31828346.338552453
190,0.0
2,17, 1,17, 0,14, 0.00,60.00,Tuesday
141,31624056.381097972
190,0.0
2,17, 1,17, 0,15, 0.00,60.00,Tuesday
141,31976564.908088427
190,0.0
2,17, 1,17, 0,16, 0.00,60.00,Tuesday
141,32981614.32926503
190,0.0
2,17, 1,17, 0,17, 0.00,60.00,Tuesday
141,33796916.135733224
190,0.0
2,17, 1,17, 0,18, 0.00,60.00,Tuesday
141,33929909.22823255
190,0.0
2,17, 1,17, 0,19, 0.00,60.00,Tuesday
141,33910484.55346037
190,0.0
2,17, 1,17, 0,20, 0.00,60.00,Tuesday
141,34124659.70773949
190,0.0
2,17, 1,17, 0,21, 0.00,60.00,Tuesday
141,34453356.11134681
190,0.0
2,17, 1,17, 0,22, 0.00,60.00,Tuesday
141,34526402.89798091
190,0.0
2,17, 1,17, 0,23, 0.00,60.00,Tuesday
141,34582134.49216972
190,0.0
2,17, 1,17, 0,24, 0.00,60.00,Tuesday
141,35002004.736706026
190,0.0
2,18, 1,18, 0, 1, 0.00,60.00,Wednesday
141,35264054.806581676
190,0.0
2,18, 1,18, 0, 2, 0.00,60.00,Wednesday
141,35447231.660600096
190,0.0
2,18, 1,18, 0, 3, 0.00,60.00,Wednesday
141,35494807.54907097
190,0.0
2,18, 1,18, 0, 4, 0.00,60.00,Wednesday
141,35445732.36021571
190,0.0
2,18, 1,18, 0, 5, 0.00,60.00,Wednesday
141,35456072.769785106
190,0.0
2,18, 1,18, 0, 6, 0.00,60.00,Wednesday
141,35547098.43327655
190,0.0
2,18, 1,18, 0, 7, 0.00,60.00,Wednesday
141,36194115.853452705
190,0.0
2,18, 1,18, 0, 8, 0.00,60.00,Wednesday
141,36372882.025519
190,0.0
2,18, 1,18, 0, 9, 0.00,60.00,Wednesday
141,36460474.25258871
190,0.0
2,18, 1,18, 0,10, 0.00,60.00,Wednesday
141,36401902.21091534
190,0.0
2,18, 1,18, 0,11, 0.00,60.00,Wednesday
141,35740804.76298605
190,0.0
2,18, 1,18, 0,12, 0.00,60.00,Wednesday
141,35234852.8901754
190,0.0
2,18, 1,18, 0,13, 0.00,60.00,Wednesday
141,35457380.649693765
190,0.0
2,18, 1,18, 0,14, 0.00,60.00,Wednesday
141,35950254.468092024
190,0.0
2,18, 1,18, 0,15, 0.00,60.00,Wednesday
141,36221925.90680453
190,0.0
2,18, 1,18, 0,16, 0.00,60.00,Wednesday
141,36797588.34936931
190,0.0
2,18, 1,18, 0,17, 0.00,60.00,Wednesday
141,37093262.47277589
190,0.0
2,18, 1,18, 0,18, 0.00,60.00,Wednesday
141,36889574.245796405
190,0.0
2,18, 1,18, 0,19, 0.00,60.00,Wednesday
141,36795872.166125365
190,0.0
2,18, 1,18, 0,20, 0.00,60.00,Wednesday
141,36905079.91168669
190,0.0
2,18, 1,18, 0,21, 0.00,60.00,Wednesday
141,36984728.4125139
190,0.0
2,18, 1,18, 0,22, 0.00,60.00,Wednesday
141,37174795.33482808
190,0.0
2,18, 1,18, 0,23, 0.00,60.00,Wednesday
141,37314365.32387387
190,0.0
2,18, 1,18, 0,24, 0.00,60.00,Wednesday
141,37498919.207777955
190,0.0
2,19, 1,19, 0, 1, 0.00,60.00,Thursday
141,37300080.39096776
190,0.0