Program Version,EnergyPlus, Version 24.2.0-94a887817b, YMD=2025.04.24 13:18
1,5,Environment Title[],Latitude[deg],Longitude[deg],Time Zone[],Elevation[m]
2,8,Day of Simulation[],Month[],Day of Month[],DST Indicator[1=yes 0=no],Hour[],StartMinute[],EndMinute[],DayType
3,5,Cumulative Day of Simulation[],Month[],Day of Month[],DST Indicator[1=yes 0=no],DayType  ! When Daily Report Variables Requested
4,2,Cumulative Days of Simulation[],Month[]  ! When Monthly Report Variables Requested
5,1,Cumulative Days of Simulation[] ! When Run Period Report Variables Requested
6,1,Calendar Year of Simulation[] ! When Annual Report Variables Requested
141,1,ZONE_0599100000059849 IDEAL LOADS AIR SYSTEM,Zone Ideal Loads Supply Air Total Heating Energy [J] !Hourly
190,1,ZONE_0599100000059849 IDEAL LOADS AIR SYSTEM,Zone Ideal Loads Supply Air Total Cooling Energy [J] !Hourly
End of Data Dictionary
1,RUN PERIOD 1,  51.96,   4.45,   1.00,  -4.50
2,1, 1, 1, 0, 1, 0.00,60.00,Sunday
141,110158752.860157
190,0.0
2,1, 1, 1, 0, 2, 0.00,60.00,Sunday
141,113794383.94235143
190,0.0
2,1, 1, 1, 0, 3, 0.00,60.00,Sunday
141,113837400.59759247
190,0.0
2,1, 1, 1, 0, 4, 0.00,60.00,Sunday
141,116560524.21904513
190,0.0
2,1, 1, 1, 0, 5, 0.00,60.00,Sunday
141,118498984.91342862
190,0.0
2,1, 1, 1, 0, 6, 0.00,60.00,Sunday
141,118903604.90075645
190,0.0
2,1, 1, 1, 0, 7, 0.00,60.00,Sunday
141,119475748.24222885
190,0.0
2,1, 1, 1, 0, 8, 0.00,60.00,Sunday
141,119531581.5656284
190,0.0
2,1, 1, 1, 0, 9, 0.00,60.00,Sunday
141,119649438.6626239
190,0.0
2,1, 1, 1, 0,10, 0.00,60.00,Sunday
141,119150472.0866094
190,0.0
2,1, 1, 1, 0,11, 0.00,60.00,Sunday
141,117316571.9555538
190,0.0
2,1, 1, 1, 0,12, 0.00,60.00,Sunday
141,114067212.51153433
190,0.0
2,1, 1, 1, 0,13, 0.00,60.00,Sunday
141,112456018.27167076
190,0.0
2,1, 1, 1, 0,14, 0.00,60.00,Sunday
141,109946887.72546
190,0.0
2,1, 1, 1, 0,15, 0.00,60.00,Sunday
141,107901080.2011348
190,0.0
2,1, 1, 1, 0,16, 0.00,60.00,Sunday
141,108925390.74223997
190,0.0
2,1, 1, 1, 0,17, 0.00,60.00,Sunday
141,110273346.274873
190,0.0
2,1, 1, 1, 0,18, 0.00,60.00,Sunday
141,110266949.62917095
190,0.0
2,1, 1, 1, 0,19, 0.00,60.00,Sunday
141,110321420.86542211
190,0.0
2,1, 1, 1, 0,20, 0.00,60.00,Sunday
141,109870507.31485625
190,0.0
2,1, 1, 1, 0,21, 0.00,60.00,Sunday
141,109348326.33494613
190,0.0
2,1, 1, 1, 0,22, 0.00,60.00,Sunday
141,109510862.55976424
190,0.0
2,1, 1, 1, 0,23, 0.00,60.00,Sunday
141,107067949.54295471
190,0.0
2,1, 1, 1, 0,24, 0.00,60.00,Sunday
141,105312786.01907349
190,0.0
2,2, 1, 2, 0, 1, 0.00,60.00,Monday
141,105740244.59510584
190,0.0
2,2, 1, 2, 0, 2, 0.00,60.00,Monday
141,103345221.63770372
190,0.0
2,2, 1, 2, 0, 3, 0.00,60.00,Monday
141,101504507.94664249
190,0.0
2,2, 1, 2, 0, 4, 0.00,60.00,Monday
141,99602528.93824477
190,0.0
2,2, 1, 2, 0, 5, 0.00,60.00,Monday
141,95349321.98980655
190,0.0
2,2, 1, 2, 0, 6, 0.00,60.00,Monday
141,93254680.14096549
190,0.0
2,2, 1, 2, 0, 7, 0.00,60.00,Monday
141,89940526.00791696
190,0.0
2,2, 1, 2, 0, 8, 0.00,60.00,Monday
141,85856182.48671405
190,0.0
2,2, 1, 2, 0, 9, 0.00,60.00,Monday
141,86748460.96034962
190,0.0
2,2, 1, 2, 0,10, 0.00,60.00,Monday
141,89256172.06855328
190,0.0
2,2, 1, 2, 0,11, 0.00,60.00,Monday
141,90783471.92072564
190,0.0
2,2, 1, 2, 0,12, 0.00,60.00,Monday
141,88696959.82304543
190,0.0
2,2, 1, 2, 0,13, 0.00,60.00,Monday
141,87689621.6885604
190,0.0
2,2, 1, 2, 0,14, 0.00,60.00,Monday
141,89538200.21012594
190,0.0
2,2, 1, 2, 0,15, 0.00,60.00,Monday
141,90379675.12723081
190,0.0
2,2, 1, 2, 0,16, 0.00,60.00,Monday
141,92327589.03297766
190,0.0
2,2, 1, 2, 0,17, 0.00,60.00,Monday
141,94308237.30400771
190,0.0
2,2, 1, 2, 0,18, 0.00,60.00,Monday
141,94848686.01413788
190,0.0
2,2, 1, 2, 0,19, 0.00,60.00,Monday
141,97139179.20007539
190,0.0
2,2, 1, 2, 0,20, 0.00,60.00,Monday
141,99309022.0152136
190,0.0
2,2, 1, 2, 0,21, 0.00,60.00,Monday
141,99951734.36656086
190,0.0
2,2, 1, 2, 0,22, 0.00,60.00,Monday
141,100265501.91513678
190,0.0
2,2, 1, 2, 0,23, 0.00,60.00,Monday
141,100738205.48493458
190,0.0
2,2, 1, 2, 0,24, 0.00,60.00,Monday
141,101262126.81352133
190,0.0
2,3, 1, 3, 0, 1, 0.00,60.00,Tuesday
141,101837033.30312042
190,0.0
2,3, 1, 3, 0, 2, 0.00,60.00,Tuesday
141,102214843.37521741
190,0.0
2,3, 1, 3, 0, 3, 0.00,60.00,Tuesday
141,102491570.45067151
190,0.0
2,3, 1, 3, 0, 4, 0.00,60.00,Tuesday
141,103066488.38836081
190,0.0
2,3, 1, 3, 0, 5, 0.00,60.00,Tuesday
141,105583725.20835972
190,0.0
2,3, 1, 3, 0, 6, 0.00,60.00,Tuesday
141,107162751.23533821
190,0.0
2,3, 1, 3, 0, 7, 0.00,60.00,Tuesday
141,107868597.42535806
190,0.0
2,3, 1, 3, 0, 8, 0.00,60.00,Tuesday
141,107584900.34854656
190,0.0
2,3, 1, 3, 0, 9, 0.00,60.00,Tuesday
141,109408838.80502321
190,0.0
2,3, 1, 3, 0,10, 0.00,60.00,Tuesday
141,110225676.66595404
190,0.0
2,3, 1, 3, 0,11, 0.00,60.00,Tuesday
141,110350119.06844226
190,0.0
2,3, 1, 3, 0,12, 0.00,60.00,Tuesday
141,110835639.4505277
190,0.0
2,3, 1, 3, 0,13, 0.00,60.00,Tuesday
141,113750866.49922515
190,0.0
2,3, 1, 3, 0,14, 0.00,60.00,Tuesday
141,115394829.30979285
190,0.0
2,3, 1, 3, 0,15, 0.00,60.00,Tuesday
141,115068259.0954543
190,0.0
2,3, 1, 3, 0,16, 0.00,60.00,Tuesday
141,114748957.76816984
190,0.0
2,3, 1, 3, 0,17, 0.00,60.00,Tuesday
141,114816366.69192185
190,0.0
2,3, 1, 3, 0,18, 0.00,60.00,Tuesday
141,114994363.67635182
190,0.0
2,3, 1, 3, 0,19, 0.00,60.00,Tuesday
141,114433263.30486068
190,0.0
2,3, 1, 3, 0,20, 0.00,60.00,Tuesday
141,112019322.81734486
190,0.0
2,3, 1, 3, 0,21, 0.00,60.00,Tuesday
141,105692172.74213982
190,0.0
2,3, 1, 3, 0,22, 0.00,60.00,Tuesday
141,102385969.46406797
190,0.0
2,3, 1, 3, 0,23, 0.00,60.00,Tuesday
141,104947495.31018993
190,0.0
2,3, 1, 3, 0,24, 0.00,60.00,Tuesday
141,109219464.2940804
190,0.0
2,4, 1, 4, 0, 1, 0.00,60.00,Wednesday
141,111414307.57784645
190,0.0
2,4, 1, 4, 0, 2, 0.00,60.00,Wednesday
141,111276575.90868434
190,0.0
2,4, 1, 4, 0, 3, 0.00,60.00,Wednesday
141,110918110.26504532
190,0.0
2,4, 1, 4, 0, 4, 0.00,60.00,Wednesday
141,111897705.14308026
190,0.0
2,4, 1, 4, 0, 5, 0.00,60.00,Wednesday
141,114873666.36506909
190,0.0
2,4, 1, 4, 0, 6, 0.00,60.00,Wednesday
141,114352865.46164678
190,0.0
2,4, 1, 4, 0, 7, 0.00,60.00,Wednesday
141,114349078.96232529
190,0.0
2,4, 1, 4, 0, 8, 0.00,60.00,Wednesday
141,115516267.52597624
190,0.0
2,4, 1, 4, 0, 9, 0.00,60.00,Wednesday
141,116346840.75306404
190,0.0
2,4, 1, 4, 0,10, 0.00,60.00,Wednesday
141,117010298.39983836
190,0.0
2,4, 1, 4, 0,11, 0.00,60.00,Wednesday
141,112146901.1163978
190,0.0
2,4, 1, 4, 0,12, 0.00,60.00,Wednesday
141,103959680.37603723
190,0.0
2,4, 1, 4, 0,13, 0.00,60.00,Wednesday
141,101925597.02959913
190,0.0
2,4, 1, 4, 0,14, 0.00,60.00,Wednesday
141,101784534.6223774
190,0.0
2,4, 1, 4, 0,15, 0.00,60.00,Wednesday
141,101026081.15020512
190,0.0
2,4, 1, 4, 0,16, 0.00,60.00,Wednesday
141,104378239.16899326
190,0.0
2,4, 1, 4, 0,17, 0.00,60.00,Wednesday
141,110365664.4963543
190,0.0
2,4, 1, 4, 0,18, 0.00,60.00,Wednesday
141,115507022.13031043
190,0.0
2,4, 1, 4, 0,19, 0.00,60.00,Wednesday
141,120769557.15340541
190,0.0
2,4, 1, 4, 0,20, 0.00,60.00,Wednesday
141,123555791.07133272
190,0.0
2,4, 1, 4, 0,21, 0.00,60.00,Wednesday
141,124927068.7121418
190,0.0
2,4, 1, 4, 0,22, 0.00,60.00,Wednesday
141,127783212.71456443
190,0.0
2,4, 1, 4, 0,23, 0.00,60.00,Wednesday
141,127000203.77196231
190,0.0
2,4, 1, 4, 0,24, 0.00,60.00,Wednesday
141,125535497.07175809
190,0.0
2,5, 1, 5, 0, 1, 0.00,60.00,Thursday
141,126747383.57479617
190,0.0
2,5, 1, 5, 0, 2, 0.00,60.00,Thursday
141,125931739.82205236
190,0.0
2,5, 1, 5, 0, 3, 0.00,60.00,Thursday
141,125110188.33132191
190,0.0
2,5, 1, 5, 0, 4, 0.00,60.00,Thursday
141,125746175.0156153
190,0.0
2,5, 1, 5, 0, 5, 0.00,60.00,Thursday
141,124562821.89806315
190,0.0
2,5, 1, 5, 0, 6, 0.00,60.00,Thursday
141,124126620.54569678
190,0.0
2,5, 1, 5, 0, 7, 0.00,60.00,Thursday
141,125188280.34719741
190,0.0
2,5, 1, 5, 0, 8, 0.00,60.00,Thursday
141,126048817.37394616
190,0.0
2,5, 1, 5, 0, 9, 0.00,60.00,Thursday
141,126286828.85042614
190,0.0
2,5, 1, 5, 0,10, 0.00,60.00,Thursday
141,127777838.13370295
190,0.0
2,5, 1, 5, 0,11, 0.00,60.00,Thursday
141,127193418.70009413
190,0.0
2,5, 1, 5, 0,12, 0.00,60.00,Thursday
141,123395274.83773038
190,0.0
2,5, 1, 5, 0,13, 0.00,60.00,Thursday
141,121787000.75673072
190,0.0
2,5, 1, 5, 0,14, 0.00,60.00,Thursday
141,118694972.1762401
190,0.0
2,5, 1, 5, 0,15, 0.00,60.00,Thursday
141,115971771.96676058
190,0.0
2,5, 1, 5, 0,16, 0.00,60.00,Thursday
141,116839465.52593884
190,0.0
2,5, 1, 5, 0,17, 0.00,60.00,Thursday
141,115589351.75565106
190,0.0
2,5, 1, 5, 0,18, 0.00,60.00,Thursday
141,113693537.718254
190,0.0
2,5, 1, 5, 0,19, 0.00,60.00,Thursday
141,113626923.28423066
190,0.0
2,5, 1, 5, 0,20, 0.00,60.00,Thursday
141,112930827.49760437
190,0.0
2,5, 1, 5, 0,21, 0.00,60.00,Thursday
141,112086084.89743277
190,0.0
2,5, 1, 5, 0,22, 0.00,60.00,Thursday
141,111784924.46417978
190,0.0
2,5, 1, 5, 0,23, 0.00,60.00,Thursday
141,112022703.66525221
190,0.0
2,5, 1, 5, 0,24, 0.00,60.00,Thursday
141,112365154.72016484
190,0.0
2,6, 1, 6, 0, 1, 0.00,60.00,Friday
141,112547359.7531982
190,0.0
2,6, 1, 6, 0, 2, 0.00,60.00,Friday
141,112738700.40355219
190,0.0
2,6, 1, 6, 0, 3, 0.00,60.00,Friday
141,114958633.05045846
190,0.0
2,6, 1, 6, 0, 4, 0.00,60.00,Friday
141,117127005.1493682
190,0.0
2,6, 1, 6, 0, 5, 0.00,60.00,Friday
141,118225575.585508
190,0.0
2,6, 1, 6, 0, 6, 0.00,60.00,Friday
141,119627495.61183491
190,0.0
2,6, 1, 6, 0, 7, 0.00,60.00,Friday
141,121780871.46841575
190,0.0
2,6, 1, 6, 0, 8, 0.00,60.00,Friday
141,123876413.15150487
190,0.0
2,6, 1, 6, 0, 9, 0.00,60.00,Friday
141,126456654.4092969
190,0.0
2,6, 1, 6, 0,10, 0.00,60.00,Friday
141,128109748.36245054
190,0.0
2,6, 1, 6, 0,11, 0.00,60.00,Friday
141,126733754.15709203
190,0.0
2,6, 1, 6, 0,12, 0.00,60.00,Friday
141,124463647.31783642
190,0.0
2,6, 1, 6, 0,13, 0.00,60.00,Friday
141,123476657.81129427
190,0.0
2,6, 1, 6, 0,14, 0.00,60.00,Friday
141,123066320.56235185
190,0.0
2,6, 1, 6, 0,15, 0.00,60.00,Friday
141,122272951.97498658
190,0.0
2,6, 1, 6, 0,16, 0.00,60.00,Friday
141,120401664.59211154
190,0.0
2,6, 1, 6, 0,17, 0.00,60.00,Friday
141,118400921.95482586
190,0.0
2,6, 1, 6, 0,18, 0.00,60.00,Friday
141,117304913.54985878
190,0.0
2,6, 1, 6, 0,19, 0.00,60.00,Friday
141,116180656.6384132
190,0.0
2,6, 1, 6, 0,20, 0.00,60.00,Friday
141,113887547.52471554
190,0.0
2,6, 1, 6, 0,21, 0.00,60.00,Friday
141,108395182.2228215
190,0.0
2,6, 1, 6, 0,22, 0.00,60.00,Friday
141,101898171.18072397
190,0.0
2,6, 1, 6, 0,23, 0.00,60.00,Friday
141,99129674.05187042
190,0.0
2,6, 1, 6, 0,24, 0.00,60.00,Friday
141,99967914.14303955
190,0.0
2,7, 1, 7, 0, 1, 0.00,60.00,Saturday
141,105398737.56379539
190,0.0
2,7, 1, 7, 0, 2, 0.00,60.00,Saturday
141,110737335.14375088
190,0.0
2,7, 1, 7, 0, 3, 0.00,60.00,Saturday
141,109942283.52569947
190,0.0
2,7, 1, 7, 0, 4, 0.00,60.00,Saturday
141,110338089.27401939
190,0.0
2,7, 1, 7, 0, 5, 0.00,60.00,Saturday
141,113973068.59250951
190,0.0
2,7, 1, 7, 0, 6, 0.00,60.00,Saturday
141,116832101.46203804
190,0.0
2,7, 1, 7, 0, 7, 0.00,60.00,Saturday
141,118530138.68993945
190,0.0
2,7, 1, 7, 0, 8, 0.00,60.00,Saturday
141,119414898.15298784
190,0.0
2,7, 1, 7, 0, 9, 0.00,60.00,Saturday
141,117481509.33059599
190,0.0
2,7, 1, 7, 0,10, 0.00,60.00,Saturday
141,115817240.41677542
190,0.0
2,7, 1, 7, 0,11, 0.00,60.00,Saturday
141,110647334.08159703
190,0.0
2,7, 1, 7, 0,12, 0.00,60.00,Saturday
141,105373377.26116464
190,0.0
2,7, 1, 7, 0,13, 0.00,60.00,Saturday
141,101357328.74211869
190,0.0
2,7, 1, 7, 0,14, 0.00,60.00,Saturday
141,98967959.03406389
190,0.0
2,7, 1, 7, 0,15, 0.00,60.00,Saturday
141,99112311.78695694
190,0.0
2,7, 1, 7, 0,16, 0.00,60.00,Saturday
141,99966576.58768076
190,0.0
2,7, 1, 7, 0,17, 0.00,60.00,Saturday
141,100424876.03710811
190,0.0
2,7, 1, 7, 0,18, 0.00,60.00,Saturday
141,102074724.10501906
190,0.0
2,7, 1, 7, 0,19, 0.00,60.00,Saturday
141,103749887.3610336
190,0.0
2,7, 1, 7, 0,20, 0.00,60.00,Saturday
141,105581738.46945283
190,0.0
2,7, 1, 7, 0,21, 0.00,60.00,Saturday
141,106965354.20115651
190,0.0
2,7, 1, 7, 0,22, 0.00,60.00,Saturday
141,106915811.13049553
190,0.0
2,7, 1, 7, 0,23, 0.00,60.00,Saturday
141,107260324.77783056
190,0.0
2,7, 1, 7, 0,24, 0.00,60.00,Saturday
141,107299151.98475942
190,0.0
2,8, 1, 8, 0, 1, 0.00,60.00,Sunday
141,106078558.66129471
190,0.0
2,8, 1, 8, 0, 2, 0.00,60.00,Sunday
141,104745014.93241462
190,0.0
2,8, 1, 8, 0, 3, 0.00,60.00,Sunday
141,103675859.71060807
190,0.0
2,8, 1, 8, 0, 4, 0.00,60.00,Sunday
141,101883653.49941778
190,0.0
2,8, 1, 8, 0, 5, 0.00,60.00,Sunday
141,99490367.10854787
190,0.0
2,8, 1, 8, 0, 6, 0.00,60.00,Sunday
141,97699580.06256095
190,0.0
2,8, 1, 8, 0, 7, 0.00,60.00,Sunday
141,96284060.77922875
190,0.0
2,8, 1, 8, 0, 8, 0.00,60.00,Sunday
141,94967042.2914472
190,0.0
2,8, 1, 8, 0, 9, 0.00,60.00,Sunday
141,93456206.75670281
190,0.0
2,8, 1, 8, 0,10, 0.00,60.00,Sunday
141,92869036.79119904
190,0.0
2,8, 1, 8, 0,11, 0.00,60.00,Sunday
141,92309725.90840417
190,0.0
2,8, 1, 8, 0,12, 0.00,60.00,Sunday
141,92363279.98195262
190,0.0
2,8, 1, 8, 0,13, 0.00,60.00,Sunday
141,91776318.56087877
190,0.0
2,8, 1, 8, 0,14, 0.00,60.00,Sunday
141,91811254.13166319
190,0.0
2,8, 1, 8, 0,15, 0.00,60.00,Sunday
141,94811577.64111805
190,0.0
2,8, 1, 8, 0,16, 0.00,60.00,Sunday
141,96940532.3663625
190,0.0
2,8, 1, 8, 0,17, 0.00,60.00,Sunday
141,96884125.02884787
190,0.0
2,8, 1, 8, 0,18, 0.00,60.00,Sunday
141,97863820.46727999
190,0.0
2,8, 1, 8, 0,19, 0.00,60.00,Sunday
141,97329298.66136831
190,0.0
2,8, 1, 8, 0,20, 0.00,60.00,Sunday
141,95442357.73716867
190,0.0
2,8, 1, 8, 0,21, 0.00,60.00,Sunday
141,94151197.3494651
190,0.0
2,8, 1, 8, 0,22, 0.00,60.00,Sunday
141,94731289.22747356
190,0.0
2,8, 1, 8, 0,23, 0.00,60.00,Sunday
141,95297710.68992613
190,0.0
2,8, 1, 8, 0,24, 0.00,60.00,Sunday
141,96659585.48425393
190,0.0
2,9, 1, 9, 0, 1, 0.00,60.00,Monday
141,97062627.12411655
190,0.0
2,9, 1, 9, 0, 2, 0.00,60.00,Monday
141,97381268.12238789
190,0.0
2,9, 1, 9, 0, 3, 0.00,60.00,Monday
141,97287220.9211264
190,0.0
2,9, 1, 9, 0, 4, 0.00,60.00,Monday
141,96749137.23105001
190,0.0
2,9, 1, 9, 0, 5, 0.00,60.00,Monday
141,95275743.96982305
190,0.0
2,9, 1, 9, 0, 6, 0.00,60.00,Monday
141,93730440.63043472
190,0.0
2,9, 1, 9, 0, 7, 0.00,60.00,Monday
141,92584432.27831769
190,0.0
2,9, 1, 9, 0, 8, 0.00,60.00,Monday
141,91919913.43367714
190,0.0
2,9, 1, 9, 0, 9, 0.00,60.00,Monday
141,90069893.16931708
190,0.0
2,9, 1, 9, 0,10, 0.00,60.00,Monday
141,85642292.1787489
190,0.0
2,9, 1, 9, 0,11, 0.00,60.00,Monday
141,81845333.90227082
190,0.0
2,9, 1, 9, 0,12, 0.00,60.00,Monday
141,79670044.31119737
190,0.0
2,9, 1, 9, 0,13, 0.00,60.00,Monday
141,77786964.94014844
190,0.0
2,9, 1, 9, 0,14, 0.00,60.00,Monday
141,76274568.95579001
190,0.0
2,9, 1, 9, 0,15, 0.00,60.00,Monday
141,75498707.32861738
190,0.0
2,9, 1, 9, 0,16, 0.00,60.00,Monday
141,75987303.16260104
190,0.0
2,9, 1, 9, 0,17, 0.00,60.00,Monday
141,78558752.24193043
190,0.0
2,9, 1, 9, 0,18, 0.00,60.00,Monday
141,81019175.41695346
190,0.0
2,9, 1, 9, 0,19, 0.00,60.00,Monday
141,80559349.81644233
190,0.0
2,9, 1, 9, 0,20, 0.00,60.00,Monday
141,76514161.99497592
190,0.0
2,9, 1, 9, 0,21, 0.00,60.00,Monday
141,72447594.1721499
190,0.0
2,9, 1, 9, 0,22, 0.00,60.00,Monday
141,69865365.73096809
190,0.0
2,9, 1, 9, 0,23, 0.00,60.00,Monday
141,69159628.12612577
190,0.0
2,9, 1, 9, 0,24, 0.00,60.00,Monday
141,69056310.80455515
190,0.0
2,10, 1,10, 0, 1, 0.00,60.00,Tuesday
141,69703410.26423204
190,0.0
2,10, 1,10, 0, 2, 0.00,60.00,Tuesday
141,69969558.6185891
190,0.0
2,10, 1,10, 0, 3, 0.00,60.00,Tuesday
141,69629599.34899347
190,0.0
2,10, 1,10, 0, 4, 0.00,60.00,Tuesday
141,70376429.01798555
190,0.0
2,10, 1,10, 0, 5, 0.00,60.00,Tuesday
141,70395217.824187
190,0.0
2,10, 1,10, 0, 6, 0.00,60.00,Tuesday
141,70161060.47266376
190,0.0
2,10, 1,10, 0, 7, 0.00,60.00,Tuesday
141,70010019.66478513
190,0.0
2,10, 1,10, 0, 8, 0.00,60.00,Tuesday
141,69336591.05995454
190,0.0
2,10, 1,10, 0, 9, 0.00,60.00,Tuesday
141,68531303.79166508
190,0.0
2,10, 1,10, 0,10, 0.00,60.00,Tuesday
141,67549806.98818672
190,0.0
2,10, 1,10, 0,11, 0.00,60.00,Tuesday
141,66219718.12104238
190,0.0
2,10, 1,10, 0,12, 0.00,60.00,Tuesday
141,64735311.95931951
190,0.0
2,10, 1,10, 0,13, 0.00,60.00,Tuesday
141,64410153.19913486
190,0.0
2,10, 1,10, 0,14, 0.00,60.00,Tuesday
141,69365078.1890369
190,0.0
2,10, 1,10, 0,15, 0.00,60.00,Tuesday
141,73398095.10990328
190,0.0
2,10, 1,10, 0,16, 0.00,60.00,Tuesday
141,75953133.598088
190,0.0
2,10, 1,10, 0,17, 0.00,60.00,Tuesday
141,78713671.6524129
190,0.0
2,10, 1,10, 0,18, 0.00,60.00,Tuesday
141,82382377.70816687
190,0.0
2,10, 1,10, 0,19, 0.00,60.00,Tuesday
141,84658264.55046284
190,0.0
2,10, 1,10, 0,20, 0.00,60.00,Tuesday
141,86712228.26843303
190,0.0
2,10, 1,10, 0,21, 0.00,60.00,Tuesday
141,89759314.97197658
190,0.0
2,10, 1,10, 0,22, 0.00,60.00,Tuesday
141,92057013.92734118
190,0.0
2,10, 1,10, 0,23, 0.00,60.00,Tuesday
141,92496690.73722267
190,0.0
2,10, 1,10, 0,24, 0.00,60.00,Tuesday
141,95128540.61129436
190,0.0
2,11, 1,11, 0, 1, 0.00,60.00,Wednesday
141,96617149.18325582
190,0.0
2,11, 1,11, 0, 2, 0.00,60.00,Wednesday
141,98079260.72365502
190,0.0
2,11, 1,11, 0, 3, 0.00,60.00,Wednesday
141,100014713.86218685
190,0.0
2,11, 1,11, 0, 4, 0.00,60.00,Wednesday
141,99983349.65064521
190,0.0
2,11, 1,11, 0, 5, 0.00,60.00,Wednesday
141,100067620.75474869
190,0.0
2,11, 1,11, 0, 6, 0.00,60.00,Wednesday
141,100445613.28265499
190,0.0
2,11, 1,11, 0, 7, 0.00,60.00,Wednesday
141,101247669.16076568
190,0.0
2,11, 1,11, 0, 8, 0.00,60.00,Wednesday
141,101980482.13661565
190,0.0
2,11, 1,11, 0, 9, 0.00,60.00,Wednesday
141,102057616.6076087
190,0.0
2,11, 1,11, 0,10, 0.00,60.00,Wednesday
141,101678828.33058299
190,0.0
2,11, 1,11, 0,11, 0.00,60.00,Wednesday
141,100820784.5336245
190,0.0
2,11, 1,11, 0,12, 0.00,60.00,Wednesday
141,99197831.86683121
190,0.0
2,11, 1,11, 0,13, 0.00,60.00,Wednesday
141,97755718.73558977
190,0.0
2,11, 1,11, 0,14, 0.00,60.00,Wednesday
141,96817006.73312116
190,0.0
2,11, 1,11, 0,15, 0.00,60.00,Wednesday
141,96059878.4010138
190,0.0
2,11, 1,11, 0,16, 0.00,60.00,Wednesday
141,95322024.12503803
190,0.0
2,11, 1,11, 0,17, 0.00,60.00,Wednesday
141,93561613.0751485
190,0.0
2,11, 1,11, 0,18, 0.00,60.00,Wednesday
141,91890551.15315227
190,0.0
2,11, 1,11, 0,19, 0.00,60.00,Wednesday
141,90630119.67046708
190,0.0
2,11, 1,11, 0,20, 0.00,60.00,Wednesday
141,90079827.56337374
190,0.0
2,11, 1,11, 0,21, 0.00,60.00,Wednesday
141,89723394.81790915
190,0.0
2,11, 1,11, 0,22, 0.00,60.00,Wednesday
141,87690448.38770571
190,0.0
2,11, 1,11, 0,23, 0.00,60.00,Wednesday
141,86149157.16747695
190,0.0
2,11, 1,11, 0,24, 0.00,60.00,Wednesday
141,86161511.50606224
190,0.0
2,12, 1,12, 0, 1, 0.00,60.00,Thursday
141,86753986.55063316
190,0.0
2,12, 1,12, 0, 2, 0.00,60.00,Thursday
141,86770158.57785897
190,0.0
2,12, 1,12, 0, 3, 0.00,60.00,Thursday
141,86274069.8873259
190,0.0
2,12, 1,12, 0, 4, 0.00,60.00,Thursday
141,86278575.48393242
190,0.0
2,12, 1,12, 0, 5, 0.00,60.00,Thursday
141,86871082.10425967
190,0.0
2,12, 1,12, 0, 6, 0.00,60.00,Thursday
141,88336814.96599454
190,0.0
2,12, 1,12, 0, 7, 0.00,60.00,Thursday
141,89118558.48498851
190,0.0
2,12, 1,12, 0, 8, 0.00,60.00,Thursday
141,89294109.1865775
190,0.0
2,12, 1,12, 0, 9, 0.00,60.00,Thursday
141,88224083.18674415
190,0.0
2,12, 1,12, 0,10, 0.00,60.00,Thursday
141,85921934.93715526
190,0.0
2,12, 1,12, 0,11, 0.00,60.00,Thursday
141,84168854.40649515
190,0.0
2,12, 1,12, 0,12, 0.00,60.00,Thursday
141,83174051.08979563
190,0.0
2,12, 1,12, 0,13, 0.00,60.00,Thursday
141,81909538.15547173
190,0.0
2,12, 1,12, 0,14, 0.00,60.00,Thursday
141,80587223.00107427
190,0.0
2,12, 1,12, 0,15, 0.00,60.00,Thursday
141,80648024.95322587
190,0.0
2,12, 1,12, 0,16, 0.00,60.00,Thursday
141,81321759.97425313
190,0.0
2,12, 1,12, 0,17, 0.00,60.00,Thursday
141,84172239.98993179
190,0.0
2,12, 1,12, 0,18, 0.00,60.00,Thursday
141,85849638.5736442
190,0.0
2,12, 1,12, 0,19, 0.00,60.00,Thursday
141,85240462.95452987
190,0.0
2,12, 1,12, 0,20, 0.00,60.00,Thursday
141,83746056.99565704
190,0.0
2,12, 1,12, 0,21, 0.00,60.00,Thursday
141,83139943.6189512
190,0.0
2,12, 1,12, 0,22, 0.00,60.00,Thursday
141,82076544.00719899
190,0.0
2,12, 1,12, 0,23, 0.00,60.00,Thursday
141,81593127.13333517
190,0.0
2,12, 1,12, 0,24, 0.00,60.00,Thursday
141,81509873.48779517
190,0.0
2,13, 1,13, 0, 1, 0.00,60.00,Friday
141,80623416.66380979
190,0.0
2,13, 1,13, 0, 2, 0.00,60.00,Friday
141,79757450.07961982
190,0.0
2,13, 1,13, 0, 3, 0.00,60.00,Friday
141,78563937.03210434
190,0.0
2,13, 1,13, 0, 4, 0.00,60.00,Friday
141,77721628.93800232
190,0.0
2,13, 1,13, 0, 5, 0.00,60.00,Friday
141,77379697.70884863
190,0.0
2,13, 1,13, 0, 6, 0.00,60.00,Friday
141,77275077.51738769
190,0.0
2,13, 1,13, 0, 7, 0.00,60.00,Friday
141,77592414.85359532
190,0.0
2,13, 1,13, 0, 8, 0.00,60.00,Friday
141,77407574.8388325
190,0.0
2,13, 1,13, 0, 9, 0.00,60.00,Friday
141,76516259.64663969
190,0.0
2,13, 1,13, 0,10, 0.00,60.00,Friday
141,78064588.49112368
190,0.0
2,13, 1,13, 0,11, 0.00,60.00,Friday
141,79867173.941716
190,0.0
2,13, 1,13, 0,12, 0.00,60.00,Friday
141,79921922.07656366
190,0.0
2,13, 1,13, 0,13, 0.00,60.00,Friday
141,80145947.46351466
190,0.0
2,13, 1,13, 0,14, 0.00,60.00,Friday
141,81390616.55000114
190,0.0
2,13, 1,13, 0,15, 0.00,60.00,Friday
141,82145036.00015384
190,0.0
2,13, 1,13, 0,16, 0.00,60.00,Friday
141,82050567.69785015
190,0.0
2,13, 1,13, 0,17, 0.00,60.00,Friday
141,81784700.53388141
190,0.0
2,13, 1,13, 0,18, 0.00,60.00,Friday
141,81677644.59485917
190,0.0
2,13, 1,13, 0,19, 0.00,60.00,Friday
141,82845351.29160358
190,0.0
2,13, 1,13, 0,20, 0.00,60.00,Friday
141,84877699.15569443
190,0.0
2,13, 1,13, 0,21, 0.00,60.00,Friday
141,86751462.1211065
190,0.0
2,13, 1,13, 0,22, 0.00,60.00,Friday
141,88105977.39156404
190,0.0
2,13, 1,13, 0,23, 0.00,60.00,Friday
141,88073029.38158616
190,0.0
2,13, 1,13, 0,24, 0.00,60.00,Friday
141,93263597.67532328
190,0.0
2,14, 1,14, 0, 1, 0.00,60.00,Saturday
141,97038213.76700908
190,0.0
2,14, 1,14, 0, 2, 0.00,60.00,Saturday
141,96214779.32038783
190,0.0
2,14, 1,14, 0, 3, 0.00,60.00,Saturday
141,96950227.69481078
190,0.0
2,14, 1,14, 0, 4, 0.00,60.00,Saturday
141,96845027.71827674
190,0.0
2,14, 1,14, 0, 5, 0.00,60.00,Saturday
141,97051477.46209355
190,0.0
2,14, 1,14, 0, 6, 0.00,60.00,Saturday
141,100821953.01959267
190,0.0
2,14, 1,14, 0, 7, 0.00,60.00,Saturday
141,103811690.63768771
190,0.0
2,14, 1,14, 0, 8, 0.00,60.00,Saturday
141,103485783.36014661
190,0.0
2,14, 1,14, 0, 9, 0.00,60.00,Saturday
141,105453719.80706348
190,0.0
2,14, 1,14, 0,10, 0.00,60.00,Saturday
141,107946815.9237131
190,0.0
2,14, 1,14, 0,11, 0.00,60.00,Saturday
141,107801706.92509824
190,0.0
2,14, 1,14, 0,12, 0.00,60.00,Saturday
141,107176055.70937425
190,0.0
2,14, 1,14, 0,13, 0.00,60.00,Saturday
141,105561586.37836519
190,0.0
2,14, 1,14, 0,14, 0.00,60.00,Saturday
141,101744364.37377404
190,0.0
2,14, 1,14, 0,15, 0.00,60.00,Saturday
141,101247624.62448072
190,0.0
2,14, 1,14, 0,16, 0.00,60.00,Saturday
141,101974449.59893224
190,0.0
2,14, 1,14, 0,17, 0.00,60.00,Saturday
141,103310416.07055093
190,0.0
2,14, 1,14, 0,18, 0.00,60.00,Saturday
141,106141831.19759057
190,0.0
2,14, 1,14, 0,19, 0.00,60.00,Saturday
141,106285826.1953011
190,0.0
2,14, 1,14, 0,20, 0.00,60.00,Saturday
141,106982634.10106438
190,0.0
2,14, 1,14, 0,21, 0.00,60.00,Saturday
141,106872486.11046585
190,0.0
2,14, 1,14, 0,22, 0.00,60.00,Saturday
141,106376167.92913182
190,0.0
2,14, 1,14, 0,23, 0.00,60.00,Saturday
141,106197558.83769156
190,0.0
2,14, 1,14, 0,24, 0.00,60.00,Saturday
141,106429754.84121469
190,0.0
2,15, 1,15, 0, 1, 0.00,60.00,Sunday
141,105111911.83791405
190,0.0
2,15, 1,15, 0, 2, 0.00,60.00,Sunday
141,101233611.51733392
190,0.0
2,15, 1,15, 0, 3, 0.00,60.00,Sunday
141,99430518.73486799
190,0.0
2,15, 1,15, 0, 4, 0.00,60.00,Sunday
141,98090149.44656599
190,0.0
2,15, 1,15, 0, 5, 0.00,60.00,Sunday
141,95345067.99472222
190,0.0
2,15, 1,15, 0, 6, 0.00,60.00,Sunday
141,92294856.6528089
190,0.0
2,15, 1,15, 0, 7, 0.00,60.00,Sunday
141,89142611.17428134
190,0.0
2,15, 1,15, 0, 8, 0.00,60.00,Sunday
141,86826480.19180904
190,0.0
2,15, 1,15, 0, 9, 0.00,60.00,Sunday
141,84861357.32664016
190,0.0
2,15, 1,15, 0,10, 0.00,60.00,Sunday
141,84027380.82571739
190,0.0
2,15, 1,15, 0,11, 0.00,60.00,Sunday
141,84825037.42214046
190,0.0
2,15, 1,15, 0,12, 0.00,60.00,Sunday
141,87940850.06443572
190,0.0
2,15, 1,15, 0,13, 0.00,60.00,Sunday
141,90041287.37738574
190,0.0
2,15, 1,15, 0,14, 0.00,60.00,Sunday
141,90551807.50070925
190,0.0
2,15, 1,15, 0,15, 0.00,60.00,Sunday
141,90504394.93882844
190,0.0
2,15, 1,15, 0,16, 0.00,60.00,Sunday
141,89206563.94414829
190,0.0
2,15, 1,15, 0,17, 0.00,60.00,Sunday
141,88337259.63214098
190,0.0
2,15, 1,15, 0,18, 0.00,60.00,Sunday
141,88435626.34874973
190,0.0
2,15, 1,15, 0,19, 0.00,60.00,Sunday
141,88937430.02684829
190,0.0
2,15, 1,15, 0,20, 0.00,60.00,Sunday
141,89622924.40924841
190,0.0
2,15, 1,15, 0,21, 0.00,60.00,Sunday
141,91307841.18066156
190,0.0
2,15, 1,15, 0,22, 0.00,60.00,Sunday
141,92107948.54146701
190,0.0
2,15, 1,15, 0,23, 0.00,60.00,Sunday
141,92313357.44253
190,0.0
2,15, 1,15, 0,24, 0.00,60.00,Sunday
141,92965426.42378381
190,0.0
2,16, 1,16, 0, 1, 0.00,60.00,Monday
141,94875501.45051047
190,0.0
2,16, 1,16, 0, 2, 0.00,60.00,Monday
141,96737846.59639153
190,0.0
2,16, 1,16, 0, 3, 0.00,60.00,Monday
141,97950306.47969761
190,0.0
2,16, 1,16, 0, 4, 0.00,60.00,Monday
141,98891628.45333628
190,0.0
2,16, 1,16, 0, 5, 0.00,60.00,Monday
141,100073740.05340347
190,0.0
2,16, 1,16, 0, 6, 0.00,60.00,Monday
141,101058646.41571185
190,0.0
2,16, 1,16, 0, 7, 0.00,60.00,Monday
141,102853432.11615391
190,0.0
2,16, 1,16, 0, 8, 0.00,60.00,Monday
141,104523634.27976844
190,0.0
2,16, 1,16, 0, 9, 0.00,60.00,Monday
141,105288922.85700113
190,0.0
2,16, 1,16, 0,10, 0.00,60.00,Monday
141,105404170.83489743
190,0.0
2,16, 1,16, 0,11, 0.00,60.00,Monday
141,102022488.90652932
190,0.0
2,16, 1,16, 0,12, 0.00,60.00,Monday
141,98987154.31621933
190,0.0
2,16, 1,16, 0,13, 0.00,60.00,Monday
141,96467346.39411521
190,0.0
2,16, 1,16, 0,14, 0.00,60.00,Monday
141,94607428.08703342
190,0.0
2,16, 1,16, 0,15, 0.00,60.00,Monday
141,94209893.361263
190,0.0
2,16, 1,16, 0,16, 0.00,60.00,Monday
141,94822742.59842314
190,0.0
2,16, 1,16, 0,17, 0.00,60.00,Monday
141,96564473.72919981
190,0.0
2,16, 1,16, 0,18, 0.00,60.00,Monday
141,99924678.85060202
190,0.0
2,16, 1,16, 0,19, 0.00,60.00,Monday
141,103420043.42372578
190,0.0
2,16, 1,16, 0,20, 0.00,60.00,Monday
141,105153320.21933734
190,0.0
2,16, 1,16, 0,21, 0.00,60.00,Monday
141,106494662.75893046
190,0.0
2,16, 1,16, 0,22, 0.00,60.00,Monday
141,107705845.97868665
190,0.0
2,16, 1,16, 0,23, 0.00,60.00,Monday
141,109562518.35521528
190,0.0
2,16, 1,16, 0,24, 0.00,60.00,Monday
141,109934179.0563406
190,0.0
2,17, 1,17, 0, 1, 0.00,60.00,Tuesday
141,110523834.53792195
190,0.0
2,17, 1,17, 0, 2, 0.00,60.00,Tuesday
141,113004908.77565847
190,0.0
2,17, 1,17, 0, 3, 0.00,60.00,Tuesday
141,115252516.4922362
190,0.0
2,17, 1,17, 0, 4, 0.00,60.00,Tuesday
141,117278888.9662715
190,0.0
2,17, 1,17, 0, 5, 0.00,60.00,Tuesday
141,119493457.15086153
190,0.0
2,17, 1,17, 0, 6, 0.00,60.00,Tuesday
141,121697418.70950659
190,0.0
2,17, 1,17, 0, 7, 0.00,60.00,Tuesday
141,123139301.26020962
190,0.0
2,17, 1,17, 0, 8, 0.00,60.00,Tuesday
141,124057079.97965162
190,0.0
2,17, 1,17, 0, 9, 0.00,60.00,Tuesday
141,124501563.07827552
190,0.0
2,17, 1,17, 0,10, 0.00,60.00,Tuesday
141,120838367.8113298
190,0.0
2,17, 1,17, 0,11, 0.00,60.00,Tuesday
141,115266063.69939257
190,0.0
2,17, 1,17, 0,12, 0.00,60.00,Tuesday
141,110393179.0928674
190,0.0
2,17, 1,17, 0,13, 0.00,60.00,Tuesday
141,107369958.42115644
190,0.0
2,17, 1,17, 0,14, 0.00,60.00,Tuesday
141,106292566.21508938
190,0.0
2,17, 1,17, 0,15, 0.00,60.00,Tuesday
141,106451596.13121419
190,0.0
2,17, 1,17, 0,16, 0.00,60.00,Tuesday
141,108233006.23812695
190,0.0
2,17, 1,17, 0,17, 0.00,60.00,Tuesday
141,109312538.57860592
190,0.0
2,17, 1,17, 0,18, 0.00,60.00,Tuesday
141,108422091.84941968
190,0.0
2,17, 1,17, 0,19, 0.00,60.00,Tuesday
141,107301267.81029831
190,0.0
2,17, 1,17, 0,20, 0.00,60.00,Tuesday
141,107182954.46697585
190,0.0
2,17, 1,17, 0,21, 0.00,60.00,Tuesday
141,107701901.5477756
190,0.0
2,17, 1,17, 0,22, 0.00,60.00,Tuesday
141,107696230.3493119
190,0.0
2,17, 1,17, 0,23, 0.00,60.00,Tuesday
141,107820475.08182414
190,0.0
2,17, 1,17, 0,24, 0.00,60.00,Tuesday
141,109164788.66946273
190,0.0
2,18, 1,18, 0, 1, 0.00,60.00,Wednesday
141,110174612.67458433
190,0.0
2,18, 1,18, 0, 2, 0.00,60.00,Wednesday
141,111131091.30866016
190,0.0
2,18, 1,18, 0, 3, 0.00,60.00,Wednesday
141,111841316.68825603
190,0.0
2,18, 1,18, 0, 4, 0.00,60.00,Wednesday
141,112313412.9690995
190,0.0
2,18, 1,18, 0, 5, 0.00,60.00,Wednesday
141,112921042.40241313
190,0.0
2,18, 1,18, 0, 6, 0.00,60.00,Wednesday
141,113690799.55408436
190,0.0
2,18, 1,18, 0, 7, 0.00,60.00,Wednesday
141,116034268.10507081
190,0.0
2,18, 1,18, 0, 8, 0.00,60.00,Wednesday
141,116904340.50953645
190,0.0
2,18, 1,18, 0, 9, 0.00,60.00,Wednesday
141,117439326.67265122
190,0.0
2,18, 1,18, 0,10, 0.00,60.00,Wednesday
141,117490341.21692285
190,0.0
2,18, 1,18, 0,11, 0.00,60.00,Wednesday
141,115701598.28424673
190,0.0
2,18, 1,18, 0,12, 0.00,60.00,Wednesday
141,114320386.33550595
190,0.0
2,18, 1,18, 0,13, 0.00,60.00,Wednesday
141,115032209.53388563
190,0.0
2,18, 1,18, 0,14, 0.00,60.00,Wednesday
141,116454396.5446423
190,0.0
2,18, 1,18, 0,15, 0.00,60.00,Wednesday
141,117127992.5136796
190,0.0
2,18, 1,18, 0,16, 0.00,60.00,Wednesday
141,118650301.56950074
190,0.0
2,18, 1,18, 0,17, 0.00,60.00,Wednesday
141,119323497.4080875
190,0.0
2,18, 1,18, 0,18, 0.00,60.00,Wednesday
141,118538526.84691446
190,0.0
2,18, 1,18, 0,19, 0.00,60.00,Wednesday
141,118152846.8045735
190,0.0
2,18, 1,18, 0,20, 0.00,60.00,Wednesday
141,118435959.37660615
190,0.0
2,18, 1,18, 0,21, 0.00,60.00,Wednesday
141,118662620.65328458
190,0.0
2,18, 1,18, 0,22, 0.00,60.00,Wednesday
141,119223735.58769427
190,0.0
2,18, 1,18, 0,23, 0.00,60.00,Wednesday
141,119626583.01312998
190,0.0
2,18, 1,18, 0,24, 0.00,60.00,Wednesday
141,120151937.11516644
190,0.0
2,19, 1,19, 0, 1, 0.00,60.00,Thursday
141,119523661.57147151
190,0.0
2,19, 1,19, 0, 2, 0.00,60.00,Thursday