Program Version,EnergyPlus, Version 24.2.0-94a887817b, YMD=2025.04.24 13:23
1,5,Environment Title[],Latitude[deg],Longitude[deg],Time Zone[],Elevation[m]
2,8,Day of Simulation[],Month[],Day of Month[],DST Indicator[1=yes 0=no],Hour[],StartMinute[],EndMinute[],DayType
3,5,Cumulative Day of Simulation[],Month[],Day of Month[],DST Indicator[1=yes 0=no],DayType  ! When Daily Report Variables Requested
4,2,Cumulative Days of Simulation[],Month[]  ! When Monthly Report Variables Requested
5,1,Cumulative Days of Simulation[] ! When Run Period Report Variables Requested
6,1,Calendar Year of Simulation[] ! When Annual Report Variables Requested
141,1,ZONE_0599100100016122 IDEAL LOADS AIR SYSTEM,Zone Ideal Loads Supply Air Total Heating Energy [J] !Hourly
190,1,ZONE_0599100100016122 IDEAL LOADS AIR SYSTEM,Zone Ideal Loads Supply Air Total Cooling Energy [J] !Hourly
End of Data Dictionary
1,RUN PERIOD 1,  51.96,   4.45,   1.00,  -4.50
2,1, 1, 1, 0, 1, 0.00,60.00,Sunday
141,24146414.081332095
190,0.0
2,1, 1, 1, 0, 2, 0.00,60.00,Sunday
141,25120737.177473683
190,0.0
2,1, 1, 1, 0, 3, 0.00,60.00,Sunday
141,25113214.212133706
190,0.0
2,1, 1, 1, 0, 4, 0.00,60.00,Sunday
141,25833894.494907193
190,0.0
2,1, 1, 1, 0, 5, 0.00,60.00,Sunday
141,26325888.618652634
190,0.0
2,1, 1, 1, 0, 6, 0.00,60.00,Sunday
141,26382928.77455694
190,0.0
2,1, 1, 1, 0, 7, 0.00,60.00,Sunday
141,26472836.03076166
190,0.0
2,1, 1, 1, 0, 8, 0.00,60.00,Sunday
141,26409523.956073467
190,0.0
2,1, 1, 1, 0, 9, 0.00,60.00,Sunday
141,26353335.679617234
190,0.0
2,1, 1, 1, 0,10, 0.00,60.00,Sunday
141,26122165.010174707
190,0.0
2,1, 1, 1, 0,11, 0.00,60.00,Sunday
141,25523678.90733298
190,0.0
2,1, 1, 1, 0,12, 0.00,60.00,Sunday
141,24553617.25515724
190,0.0
2,1, 1, 1, 0,13, 0.00,60.00,Sunday
141,24076284.737482484
190,0.0
2,1, 1, 1, 0,14, 0.00,60.00,Sunday
141,23417201.102997538
190,0.0
2,1, 1, 1, 0,15, 0.00,60.00,Sunday
141,22958603.84539681
190,0.0
2,1, 1, 1, 0,16, 0.00,60.00,Sunday
141,23402150.366001464
190,0.0
2,1, 1, 1, 0,17, 0.00,60.00,Sunday
141,23961102.048868578
190,0.0
2,1, 1, 1, 0,18, 0.00,60.00,Sunday
141,24137072.418120086
190,0.0
2,1, 1, 1, 0,19, 0.00,60.00,Sunday
141,24291651.262892053
190,0.0
2,1, 1, 1, 0,20, 0.00,60.00,Sunday
141,24260385.985277712
190,0.0
2,1, 1, 1, 0,21, 0.00,60.00,Sunday
141,24166934.719801147
190,0.0
2,1, 1, 1, 0,22, 0.00,60.00,Sunday
141,24228160.902949236
190,0.0
2,1, 1, 1, 0,23, 0.00,60.00,Sunday
141,23552669.325049974
190,0.0
2,1, 1, 1, 0,24, 0.00,60.00,Sunday
141,23051975.9964147
190,0.0
2,2, 1, 2, 0, 1, 0.00,60.00,Monday
141,23144309.71245304
190,0.0
2,2, 1, 2, 0, 2, 0.00,60.00,Monday
141,22465849.135799557
190,0.0
2,2, 1, 2, 0, 3, 0.00,60.00,Monday
141,21946669.63938548
190,0.0
2,2, 1, 2, 0, 4, 0.00,60.00,Monday
141,21421915.280239545
190,0.0
2,2, 1, 2, 0, 5, 0.00,60.00,Monday
141,20268555.696925275
190,0.0
2,2, 1, 2, 0, 6, 0.00,60.00,Monday
141,19725447.463316713
190,0.0
2,2, 1, 2, 0, 7, 0.00,60.00,Monday
141,18869760.28976095
190,0.0
2,2, 1, 2, 0, 8, 0.00,60.00,Monday
141,17827035.927299578
190,0.0
2,2, 1, 2, 0, 9, 0.00,60.00,Monday
141,18172605.631137054
190,0.0
2,2, 1, 2, 0,10, 0.00,60.00,Monday
141,18983398.98944266
190,0.0
2,2, 1, 2, 0,11, 0.00,60.00,Monday
141,19544334.06812713
190,0.0
2,2, 1, 2, 0,12, 0.00,60.00,Monday
141,19120281.07193497
190,0.0
2,2, 1, 2, 0,13, 0.00,60.00,Monday
141,18961971.42993338
190,0.0
2,2, 1, 2, 0,14, 0.00,60.00,Monday
141,19536259.890201047
190,0.0
2,2, 1, 2, 0,15, 0.00,60.00,Monday
141,19792639.455477916
190,0.0
2,2, 1, 2, 0,16, 0.00,60.00,Monday
141,20323078.032927107
190,0.0
2,2, 1, 2, 0,17, 0.00,60.00,Monday
141,20837555.51151969
190,0.0
2,2, 1, 2, 0,18, 0.00,60.00,Monday
141,20935237.80275591
190,0.0
2,2, 1, 2, 0,19, 0.00,60.00,Monday
141,21493831.64189692
190,0.0
2,2, 1, 2, 0,20, 0.00,60.00,Monday
141,22003221.290949587
190,0.0
2,2, 1, 2, 0,21, 0.00,60.00,Monday
141,22082556.831837606
190,0.0
2,2, 1, 2, 0,22, 0.00,60.00,Monday
141,22061315.354974546
190,0.0
2,2, 1, 2, 0,23, 0.00,60.00,Monday
141,22073857.545523755
190,0.0
2,2, 1, 2, 0,24, 0.00,60.00,Monday
141,22096936.98565983
190,0.0
2,3, 1, 3, 0, 1, 0.00,60.00,Tuesday
141,22137464.11401775
190,0.0
2,3, 1, 3, 0, 2, 0.00,60.00,Tuesday
141,22130536.646531407
190,0.0
2,3, 1, 3, 0, 3, 0.00,60.00,Tuesday
141,22107678.23752777
190,0.0
2,3, 1, 3, 0, 4, 0.00,60.00,Tuesday
141,22190414.80715993
190,0.0
2,3, 1, 3, 0, 5, 0.00,60.00,Tuesday
141,22836271.932128213
190,0.0
2,3, 1, 3, 0, 6, 0.00,60.00,Tuesday
141,23254140.13721374
190,0.0
2,3, 1, 3, 0, 7, 0.00,60.00,Tuesday
141,23454698.203001738
190,0.0
2,3, 1, 3, 0, 8, 0.00,60.00,Tuesday
141,23398048.571472142
190,0.0
2,3, 1, 3, 0, 9, 0.00,60.00,Tuesday
141,23925553.98779121
190,0.0
2,3, 1, 3, 0,10, 0.00,60.00,Tuesday
141,24179698.759835962
190,0.0
2,3, 1, 3, 0,11, 0.00,60.00,Tuesday
141,24244452.97429364
190,0.0
2,3, 1, 3, 0,12, 0.00,60.00,Tuesday
141,24404402.529720545
190,0.0
2,3, 1, 3, 0,13, 0.00,60.00,Tuesday
141,25213994.79528407
190,0.0
2,3, 1, 3, 0,14, 0.00,60.00,Tuesday
141,25657474.730320774
190,0.0
2,3, 1, 3, 0,15, 0.00,60.00,Tuesday
141,25558257.4995358
190,0.0
2,3, 1, 3, 0,16, 0.00,60.00,Tuesday
141,25468232.146982323
190,0.0
2,3, 1, 3, 0,17, 0.00,60.00,Tuesday
141,25493310.1311436
190,0.0
2,3, 1, 3, 0,18, 0.00,60.00,Tuesday
141,25557575.185636997
190,0.0
2,3, 1, 3, 0,19, 0.00,60.00,Tuesday
141,25425618.92273169
190,0.0
2,3, 1, 3, 0,20, 0.00,60.00,Tuesday
141,24787401.29497134
190,0.0
2,3, 1, 3, 0,21, 0.00,60.00,Tuesday
141,23065846.89493293
190,0.0
2,3, 1, 3, 0,22, 0.00,60.00,Tuesday
141,22141594.108098492
190,0.0
2,3, 1, 3, 0,23, 0.00,60.00,Tuesday
141,22797954.7384841
190,0.0
2,3, 1, 3, 0,24, 0.00,60.00,Tuesday
141,23918946.235351697
190,0.0
2,4, 1, 4, 0, 1, 0.00,60.00,Wednesday
141,24477011.66467588
190,0.0
2,4, 1, 4, 0, 2, 0.00,60.00,Wednesday
141,24387672.619592156
190,0.0
2,4, 1, 4, 0, 3, 0.00,60.00,Wednesday
141,24216895.301776003
190,0.0
2,4, 1, 4, 0, 4, 0.00,60.00,Wednesday
141,24404054.622451823
190,0.0
2,4, 1, 4, 0, 5, 0.00,60.00,Wednesday
141,25146518.619369764
190,0.0
2,4, 1, 4, 0, 6, 0.00,60.00,Wednesday
141,24947221.930616945
190,0.0
2,4, 1, 4, 0, 7, 0.00,60.00,Wednesday
141,24906836.730266523
190,0.0
2,4, 1, 4, 0, 8, 0.00,60.00,Wednesday
141,25201040.678807348
190,0.0
2,4, 1, 4, 0, 9, 0.00,60.00,Wednesday
141,25411625.150123596
190,0.0
2,4, 1, 4, 0,10, 0.00,60.00,Wednesday
141,25580242.352355864
190,0.0
2,4, 1, 4, 0,11, 0.00,60.00,Wednesday
141,24224781.108614154
190,0.0
2,4, 1, 4, 0,12, 0.00,60.00,Wednesday
141,21934013.84442453
190,0.0
2,4, 1, 4, 0,13, 0.00,60.00,Wednesday
141,21312439.628801726
190,0.0
2,4, 1, 4, 0,14, 0.00,60.00,Wednesday
141,21221319.626750804
190,0.0
2,4, 1, 4, 0,15, 0.00,60.00,Wednesday
141,20993664.51385631
190,0.0
2,4, 1, 4, 0,16, 0.00,60.00,Wednesday
141,21922926.905609984
190,0.0
2,4, 1, 4, 0,17, 0.00,60.00,Wednesday
141,23593784.74866858
190,0.0
2,4, 1, 4, 0,18, 0.00,60.00,Wednesday
141,25038833.740434155
190,0.0
2,4, 1, 4, 0,19, 0.00,60.00,Wednesday
141,26506053.88042607
190,0.0
2,4, 1, 4, 0,20, 0.00,60.00,Wednesday
141,27265911.65562702
190,0.0
2,4, 1, 4, 0,21, 0.00,60.00,Wednesday
141,27595800.022826523
190,0.0
2,4, 1, 4, 0,22, 0.00,60.00,Wednesday
141,28287557.35638855
190,0.0
2,4, 1, 4, 0,23, 0.00,60.00,Wednesday
141,27943015.393245883
190,0.0
2,4, 1, 4, 0,24, 0.00,60.00,Wednesday
141,27381654.109227818
190,0.0
2,5, 1, 5, 0, 1, 0.00,60.00,Thursday
141,27537648.938107416
190,0.0
2,5, 1, 5, 0, 2, 0.00,60.00,Thursday
141,27140100.901645996
190,0.0
2,5, 1, 5, 0, 3, 0.00,60.00,Thursday
141,26758442.726959735
190,0.0
2,5, 1, 5, 0, 4, 0.00,60.00,Thursday
141,26804343.51272477
190,0.0
2,5, 1, 5, 0, 5, 0.00,60.00,Thursday
141,26386143.403308447
190,0.0
2,5, 1, 5, 0, 6, 0.00,60.00,Thursday
141,26206311.097121652
190,0.0
2,5, 1, 5, 0, 7, 0.00,60.00,Thursday
141,26468329.747630566
190,0.0
2,5, 1, 5, 0, 8, 0.00,60.00,Thursday
141,26700834.933450557
190,0.0
2,5, 1, 5, 0, 9, 0.00,60.00,Thursday
141,26783770.613357857
190,0.0
2,5, 1, 5, 0,10, 0.00,60.00,Thursday
141,27224105.423436895
190,0.0
2,5, 1, 5, 0,11, 0.00,60.00,Thursday
141,27103945.06080462
190,0.0
2,5, 1, 5, 0,12, 0.00,60.00,Thursday
141,26119111.731016513
190,0.0
2,5, 1, 5, 0,13, 0.00,60.00,Thursday
141,25769745.58884157
190,0.0
2,5, 1, 5, 0,14, 0.00,60.00,Thursday
141,25060091.492776893
190,0.0
2,5, 1, 5, 0,15, 0.00,60.00,Thursday
141,24495111.36263973
190,0.0
2,5, 1, 5, 0,16, 0.00,60.00,Thursday
141,24944055.004390784
190,0.0
2,5, 1, 5, 0,17, 0.00,60.00,Thursday
141,24822411.68138305
190,0.0
2,5, 1, 5, 0,18, 0.00,60.00,Thursday
141,24511603.772860866
190,0.0
2,5, 1, 5, 0,19, 0.00,60.00,Thursday
141,24675126.369399585
190,0.0
2,5, 1, 5, 0,20, 0.00,60.00,Thursday
141,24636172.690329283
190,0.0
2,5, 1, 5, 0,21, 0.00,60.00,Thursday
141,24529856.768452656
190,0.0
2,5, 1, 5, 0,22, 0.00,60.00,Thursday
141,24550078.207661167
190,0.0
2,5, 1, 5, 0,23, 0.00,60.00,Thursday
141,24700559.795993187
190,0.0
2,5, 1, 5, 0,24, 0.00,60.00,Thursday
141,24866521.28313592
190,0.0
2,6, 1, 6, 0, 1, 0.00,60.00,Friday
141,24980051.501667924
190,0.0
2,6, 1, 6, 0, 2, 0.00,60.00,Friday
141,25090688.400579188
190,0.0
2,6, 1, 6, 0, 3, 0.00,60.00,Friday
141,25752831.466761373
190,0.0
2,6, 1, 6, 0, 4, 0.00,60.00,Friday
141,26395646.772113115
190,0.0
2,6, 1, 6, 0, 5, 0.00,60.00,Friday
141,26737679.313688453
190,0.0
2,6, 1, 6, 0, 6, 0.00,60.00,Friday
141,27151910.582718335
190,0.0
2,6, 1, 6, 0, 7, 0.00,60.00,Friday
141,27757728.519280225
190,0.0
2,6, 1, 6, 0, 8, 0.00,60.00,Friday
141,28331053.390323684
190,0.0
2,6, 1, 6, 0, 9, 0.00,60.00,Friday
141,29018554.656379163
190,0.0
2,6, 1, 6, 0,10, 0.00,60.00,Friday
141,29431028.913540203
190,0.0
2,6, 1, 6, 0,11, 0.00,60.00,Friday
141,28992285.161905617
190,0.0
2,6, 1, 6, 0,12, 0.00,60.00,Friday
141,28300068.726101413
190,0.0
2,6, 1, 6, 0,13, 0.00,60.00,Friday
141,27976802.0348318
190,0.0
2,6, 1, 6, 0,14, 0.00,60.00,Friday
141,27851271.783959225
190,0.0
2,6, 1, 6, 0,15, 0.00,60.00,Friday
141,27670530.647125185
190,0.0
2,6, 1, 6, 0,16, 0.00,60.00,Friday
141,27237447.78718898
190,0.0
2,6, 1, 6, 0,17, 0.00,60.00,Friday
141,26788267.327025406
190,0.0
2,6, 1, 6, 0,18, 0.00,60.00,Friday
141,26576607.13323287
190,0.0
2,6, 1, 6, 0,19, 0.00,60.00,Friday
141,26327408.33019947
190,0.0
2,6, 1, 6, 0,20, 0.00,60.00,Friday
141,25713263.75507717
190,0.0
2,6, 1, 6, 0,21, 0.00,60.00,Friday
141,24169426.027277738
190,0.0
2,6, 1, 6, 0,22, 0.00,60.00,Friday
141,22320815.17071865
190,0.0
2,6, 1, 6, 0,23, 0.00,60.00,Friday
141,21497131.243525486
190,0.0
2,6, 1, 6, 0,24, 0.00,60.00,Friday
141,21684625.133599654
190,0.0
2,7, 1, 7, 0, 1, 0.00,60.00,Saturday
141,23157426.56277939
190,0.0
2,7, 1, 7, 0, 2, 0.00,60.00,Saturday
141,24625315.524594743
190,0.0
2,7, 1, 7, 0, 3, 0.00,60.00,Saturday
141,24420955.194163807
190,0.0
2,7, 1, 7, 0, 4, 0.00,60.00,Saturday
141,24541455.855531026
190,0.0
2,7, 1, 7, 0, 5, 0.00,60.00,Saturday
141,25544009.180295564
190,0.0
2,7, 1, 7, 0, 6, 0.00,60.00,Saturday
141,26328597.095095336
190,0.0
2,7, 1, 7, 0, 7, 0.00,60.00,Saturday
141,26788460.289298307
190,0.0
2,7, 1, 7, 0, 8, 0.00,60.00,Saturday
141,27014650.016188696
190,0.0
2,7, 1, 7, 0, 9, 0.00,60.00,Saturday
141,26453736.742632046
190,0.0
2,7, 1, 7, 0,10, 0.00,60.00,Saturday
141,25950466.195326436
190,0.0
2,7, 1, 7, 0,11, 0.00,60.00,Saturday
141,24475946.157729566
190,0.0
2,7, 1, 7, 0,12, 0.00,60.00,Saturday
141,22990496.908288773
190,0.0
2,7, 1, 7, 0,13, 0.00,60.00,Saturday
141,21914582.119274803
190,0.0
2,7, 1, 7, 0,14, 0.00,60.00,Saturday
141,21380827.70511048
190,0.0
2,7, 1, 7, 0,15, 0.00,60.00,Saturday
141,21638257.824699946
190,0.0
2,7, 1, 7, 0,16, 0.00,60.00,Saturday
141,22161351.555610403
190,0.0
2,7, 1, 7, 0,17, 0.00,60.00,Saturday
141,22602300.730851524
190,0.0
2,7, 1, 7, 0,18, 0.00,60.00,Saturday
141,23347475.834738977
190,0.0
2,7, 1, 7, 0,19, 0.00,60.00,Saturday
141,24041768.571850307
190,0.0
2,7, 1, 7, 0,20, 0.00,60.00,Saturday
141,24707200.61547357
190,0.0
2,7, 1, 7, 0,21, 0.00,60.00,Saturday
141,25180315.697148472
190,0.0
2,7, 1, 7, 0,22, 0.00,60.00,Saturday
141,25202437.183835696
190,0.0
2,7, 1, 7, 0,23, 0.00,60.00,Saturday
141,25284944.006258532
190,0.0
2,7, 1, 7, 0,24, 0.00,60.00,Saturday
141,25238046.312289644
190,0.0
2,8, 1, 8, 0, 1, 0.00,60.00,Sunday
141,24793802.35485157
190,0.0
2,8, 1, 8, 0, 2, 0.00,60.00,Sunday
141,24275863.790597223
190,0.0
2,8, 1, 8, 0, 3, 0.00,60.00,Sunday
141,23807930.733892966
190,0.0
2,8, 1, 8, 0, 4, 0.00,60.00,Sunday
141,23141990.572712664
190,0.0
2,8, 1, 8, 0, 5, 0.00,60.00,Sunday
141,22334506.391710173
190,0.0
2,8, 1, 8, 0, 6, 0.00,60.00,Sunday
141,21730920.573582605
190,0.0
2,8, 1, 8, 0, 7, 0.00,60.00,Sunday
141,21273332.974508915
190,0.0
2,8, 1, 8, 0, 8, 0.00,60.00,Sunday
141,20883614.087218057
190,0.0
2,8, 1, 8, 0, 9, 0.00,60.00,Sunday
141,20477325.100000013
190,0.0
2,8, 1, 8, 0,10, 0.00,60.00,Sunday
141,20354939.13798066
190,0.0
2,8, 1, 8, 0,11, 0.00,60.00,Sunday
141,20265093.763920046
190,0.0
2,8, 1, 8, 0,12, 0.00,60.00,Sunday
141,20363036.020950343
190,0.0
2,8, 1, 8, 0,13, 0.00,60.00,Sunday
141,20300638.07467661
190,0.0
2,8, 1, 8, 0,14, 0.00,60.00,Sunday
141,20414422.343865916
190,0.0
2,8, 1, 8, 0,15, 0.00,60.00,Sunday
141,21333614.542528514
190,0.0
2,8, 1, 8, 0,16, 0.00,60.00,Sunday
141,22000442.20900075
190,0.0
2,8, 1, 8, 0,17, 0.00,60.00,Sunday
141,22048583.111366063
190,0.0
2,8, 1, 8, 0,18, 0.00,60.00,Sunday
141,22351873.575485263
190,0.0
2,8, 1, 8, 0,19, 0.00,60.00,Sunday
141,22210128.9735965
190,0.0
2,8, 1, 8, 0,20, 0.00,60.00,Sunday
141,21678403.46506167
190,0.0
2,8, 1, 8, 0,21, 0.00,60.00,Sunday
141,21300153.692086272
190,0.0
2,8, 1, 8, 0,22, 0.00,60.00,Sunday
141,21426438.037467513
190,0.0
2,8, 1, 8, 0,23, 0.00,60.00,Sunday
141,21546138.583152637
190,0.0
2,8, 1, 8, 0,24, 0.00,60.00,Sunday
141,21885338.650523216
190,0.0
2,9, 1, 9, 0, 1, 0.00,60.00,Monday
141,21962774.289975286
190,0.0
2,9, 1, 9, 0, 2, 0.00,60.00,Monday
141,22015402.330232497
190,0.0
2,9, 1, 9, 0, 3, 0.00,60.00,Monday
141,21951820.134925827
190,0.0
2,9, 1, 9, 0, 4, 0.00,60.00,Monday
141,21768037.703380026
190,0.0
2,9, 1, 9, 0, 5, 0.00,60.00,Monday
141,21336717.328146115
190,0.0
2,9, 1, 9, 0, 6, 0.00,60.00,Monday
141,20899906.980972238
190,0.0
2,9, 1, 9, 0, 7, 0.00,60.00,Monday
141,20588584.844818525
190,0.0
2,9, 1, 9, 0, 8, 0.00,60.00,Monday
141,20426352.55357777
190,0.0
2,9, 1, 9, 0, 9, 0.00,60.00,Monday
141,19954745.15957471
190,0.0
2,9, 1, 9, 0,10, 0.00,60.00,Monday
141,18786747.242200214
190,0.0
2,9, 1, 9, 0,11, 0.00,60.00,Monday
141,17793165.67549262
190,0.0
2,9, 1, 9, 0,12, 0.00,60.00,Monday
141,17249254.35698671
190,0.0
2,9, 1, 9, 0,13, 0.00,60.00,Monday
141,16802708.960233808
190,0.0
2,9, 1, 9, 0,14, 0.00,60.00,Monday
141,16481649.02917155
190,0.0
2,9, 1, 9, 0,15, 0.00,60.00,Monday
141,16380920.134150092
190,0.0
2,9, 1, 9, 0,16, 0.00,60.00,Monday
141,16633757.53769809
190,0.0
2,9, 1, 9, 0,17, 0.00,60.00,Monday
141,17451719.63576236
190,0.0
2,9, 1, 9, 0,18, 0.00,60.00,Monday
141,18224397.169631615
190,0.0
2,9, 1, 9, 0,19, 0.00,60.00,Monday
141,18178115.805305906
190,0.0
2,9, 1, 9, 0,20, 0.00,60.00,Monday
141,17133646.63603649
190,0.0
2,9, 1, 9, 0,21, 0.00,60.00,Monday
141,16078336.435329847
190,0.0
2,9, 1, 9, 0,22, 0.00,60.00,Monday
141,15437529.074122692
190,0.0
2,9, 1, 9, 0,23, 0.00,60.00,Monday
141,15330908.82414088
190,0.0
2,9, 1, 9, 0,24, 0.00,60.00,Monday
141,15414701.141135307
190,0.0
2,10, 1,10, 0, 1, 0.00,60.00,Tuesday
141,15726728.842208166
190,0.0
2,10, 1,10, 0, 2, 0.00,60.00,Tuesday
141,15947159.433094706
190,0.0
2,10, 1,10, 0, 3, 0.00,60.00,Tuesday
141,16004114.53776169
190,0.0
2,10, 1,10, 0, 4, 0.00,60.00,Tuesday
141,16356122.69083427
190,0.0
2,10, 1,10, 0, 5, 0.00,60.00,Tuesday
141,16502749.414894845
190,0.0
2,10, 1,10, 0, 6, 0.00,60.00,Tuesday
141,16570120.275811106
190,0.0
2,10, 1,10, 0, 7, 0.00,60.00,Tuesday
141,16646652.630769905
190,0.0
2,10, 1,10, 0, 8, 0.00,60.00,Tuesday
141,16566069.27085942
190,0.0
2,10, 1,10, 0, 9, 0.00,60.00,Tuesday
141,16436932.754331978
190,0.0
2,10, 1,10, 0,10, 0.00,60.00,Tuesday
141,16248721.733832272
190,0.0
2,10, 1,10, 0,11, 0.00,60.00,Tuesday
141,15956720.686305635
190,0.0
2,10, 1,10, 0,12, 0.00,60.00,Tuesday
141,15617331.019411854
190,0.0
2,10, 1,10, 0,13, 0.00,60.00,Tuesday
141,15594755.778203942
190,0.0
2,10, 1,10, 0,14, 0.00,60.00,Tuesday
141,17016610.76952512
190,0.0
2,10, 1,10, 0,15, 0.00,60.00,Tuesday
141,18173200.230761707
190,0.0
2,10, 1,10, 0,16, 0.00,60.00,Tuesday
141,18899693.875284772
190,0.0
2,10, 1,10, 0,17, 0.00,60.00,Tuesday
141,19645418.88135196
190,0.0
2,10, 1,10, 0,18, 0.00,60.00,Tuesday
141,20599881.156544898
190,0.0
2,10, 1,10, 0,19, 0.00,60.00,Tuesday
141,21119206.964863025
190,0.0
2,10, 1,10, 0,20, 0.00,60.00,Tuesday
141,21514423.25758474
190,0.0
2,10, 1,10, 0,21, 0.00,60.00,Tuesday
141,22120415.95051844
190,0.0
2,10, 1,10, 0,22, 0.00,60.00,Tuesday
141,22475226.08359927
190,0.0
2,10, 1,10, 0,23, 0.00,60.00,Tuesday
141,22290430.53894827
190,0.0
2,10, 1,10, 0,24, 0.00,60.00,Tuesday
141,22687489.226614766
190,0.0
2,11, 1,11, 0, 1, 0.00,60.00,Wednesday
141,22763257.88740011
190,0.0
2,11, 1,11, 0, 2, 0.00,60.00,Wednesday
141,22834169.30925517
190,0.0
2,11, 1,11, 0, 3, 0.00,60.00,Wednesday
141,23050067.850076664
190,0.0
2,11, 1,11, 0, 4, 0.00,60.00,Wednesday
141,22762103.549368925
190,0.0
2,11, 1,11, 0, 5, 0.00,60.00,Wednesday
141,22552703.08822377
190,0.0
2,11, 1,11, 0, 6, 0.00,60.00,Wednesday
141,22469207.149313796
190,0.0
2,11, 1,11, 0, 7, 0.00,60.00,Wednesday
141,22541171.076986328
190,0.0
2,11, 1,11, 0, 8, 0.00,60.00,Wednesday
141,22626664.791760992
190,0.0
2,11, 1,11, 0, 9, 0.00,60.00,Wednesday
141,22556494.277572937
190,0.0
2,11, 1,11, 0,10, 0.00,60.00,Wednesday
141,22378586.501308177
190,0.0
2,11, 1,11, 0,11, 0.00,60.00,Wednesday
141,22083762.388062615
190,0.0
2,11, 1,11, 0,12, 0.00,60.00,Wednesday
141,21607765.4862929
190,0.0
2,11, 1,11, 0,13, 0.00,60.00,Wednesday
141,21234394.66513624
190,0.0
2,11, 1,11, 0,14, 0.00,60.00,Wednesday
141,21063552.93538816
190,0.0
2,11, 1,11, 0,15, 0.00,60.00,Wednesday
141,21002429.543492354
190,0.0
2,11, 1,11, 0,16, 0.00,60.00,Wednesday
141,20991445.48789445
190,0.0
2,11, 1,11, 0,17, 0.00,60.00,Wednesday
141,20717994.104153182
190,0.0
2,11, 1,11, 0,18, 0.00,60.00,Wednesday
141,20454008.70932599
190,0.0
2,11, 1,11, 0,19, 0.00,60.00,Wednesday
141,20262959.177398685
190,0.0
2,11, 1,11, 0,20, 0.00,60.00,Wednesday
141,20218816.89624702
190,0.0
2,11, 1,11, 0,21, 0.00,60.00,Wednesday
141,20185837.01345431
190,0.0
2,11, 1,11, 0,22, 0.00,60.00,Wednesday
141,19663155.0542597
190,0.0
2,11, 1,11, 0,23, 0.00,60.00,Wednesday
141,19255546.04581507
190,0.0
2,11, 1,11, 0,24, 0.00,60.00,Wednesday
141,19263648.07801004
190,0.0
2,12, 1,12, 0, 1, 0.00,60.00,Thursday
141,19428551.473004155
190,0.0
2,12, 1,12, 0, 2, 0.00,60.00,Thursday
141,19437719.35663478
190,0.0
2,12, 1,12, 0, 3, 0.00,60.00,Thursday
141,19307712.79279155
190,0.0
2,12, 1,12, 0, 4, 0.00,60.00,Thursday
141,19313424.788285457
190,0.0
2,12, 1,12, 0, 5, 0.00,60.00,Thursday
141,19478214.00131979
190,0.0
2,12, 1,12, 0, 6, 0.00,60.00,Thursday
141,19881182.5056331
190,0.0
2,12, 1,12, 0, 7, 0.00,60.00,Thursday
141,20096644.33482962
190,0.0
2,12, 1,12, 0, 8, 0.00,60.00,Thursday
141,20145401.90827002
190,0.0
2,12, 1,12, 0, 9, 0.00,60.00,Thursday
141,19851179.495728686
190,0.0
2,12, 1,12, 0,10, 0.00,60.00,Thursday
141,19217713.18800585
190,0.0
2,12, 1,12, 0,11, 0.00,60.00,Thursday
141,18734272.959352035
190,0.0
2,12, 1,12, 0,12, 0.00,60.00,Thursday
141,18456120.57679724
190,0.0
2,12, 1,12, 0,13, 0.00,60.00,Thursday
141,18093131.00375649
190,0.0
2,12, 1,12, 0,14, 0.00,60.00,Thursday
141,17701903.0929254
190,0.0
2,12, 1,12, 0,15, 0.00,60.00,Thursday
141,17683471.909565777
190,0.0
2,12, 1,12, 0,16, 0.00,60.00,Thursday
141,17833930.74540887
190,0.0
2,12, 1,12, 0,17, 0.00,60.00,Thursday
141,18586736.336265117
190,0.0
2,12, 1,12, 0,18, 0.00,60.00,Thursday
141,19025342.0327083
190,0.0
2,12, 1,12, 0,19, 0.00,60.00,Thursday
141,18842249.646408513
190,0.0
2,12, 1,12, 0,20, 0.00,60.00,Thursday
141,18419131.301945712
190,0.0
2,12, 1,12, 0,21, 0.00,60.00,Thursday
141,18244825.526518755
190,0.0
2,12, 1,12, 0,22, 0.00,60.00,Thursday
141,17958609.500414357
190,0.0
2,12, 1,12, 0,23, 0.00,60.00,Thursday
141,17850499.07153257
190,0.0
2,12, 1,12, 0,24, 0.00,60.00,Thursday
141,17870336.364734426
190,0.0
2,13, 1,13, 0, 1, 0.00,60.00,Friday
141,17685406.428023037
190,0.0
2,13, 1,13, 0, 2, 0.00,60.00,Friday
141,17517022.193516806
190,0.0
2,13, 1,13, 0, 3, 0.00,60.00,Friday
141,17265845.254141875
190,0.0
2,13, 1,13, 0, 4, 0.00,60.00,Friday
141,17115369.11511939
190,0.0
2,13, 1,13, 0, 5, 0.00,60.00,Friday
141,17105050.023809053
190,0.0
2,13, 1,13, 0, 6, 0.00,60.00,Friday
141,17160564.17537788
190,0.0
2,13, 1,13, 0, 7, 0.00,60.00,Friday
141,17324800.595734097
190,0.0
2,13, 1,13, 0, 8, 0.00,60.00,Friday
141,17341634.70919037
190,0.0
2,13, 1,13, 0, 9, 0.00,60.00,Friday
141,17159974.462025117
190,0.0
2,13, 1,13, 0,10, 0.00,60.00,Friday
141,17639665.304824445
190,0.0
2,13, 1,13, 0,11, 0.00,60.00,Friday
141,18176228.578976393
190,0.0
2,13, 1,13, 0,12, 0.00,60.00,Friday
141,18218725.491124894
190,0.0
2,13, 1,13, 0,13, 0.00,60.00,Friday
141,18289954.0129239
190,0.0
2,13, 1,13, 0,14, 0.00,60.00,Friday
141,18622840.705635175
190,0.0
2,13, 1,13, 0,15, 0.00,60.00,Friday
141,18805610.468765974
190,0.0
2,13, 1,13, 0,16, 0.00,60.00,Friday
141,18743081.732495222
190,0.0
2,13, 1,13, 0,17, 0.00,60.00,Friday
141,18632716.162921213
190,0.0
2,13, 1,13, 0,18, 0.00,60.00,Friday
141,18581260.22502988
190,0.0
2,13, 1,13, 0,19, 0.00,60.00,Friday
141,18894659.886764854
190,0.0
2,13, 1,13, 0,20, 0.00,60.00,Friday
141,19449703.484064367
190,0.0
2,13, 1,13, 0,21, 0.00,60.00,Friday
141,19946218.924621683
190,0.0
2,13, 1,13, 0,22, 0.00,60.00,Friday
141,20261590.70517387
190,0.0
2,13, 1,13, 0,23, 0.00,60.00,Friday
141,20151681.313749887
190,0.0
2,13, 1,13, 0,24, 0.00,60.00,Friday
141,21440587.32273355
190,0.0
2,14, 1,14, 0, 1, 0.00,60.00,Saturday
141,22328151.93633715
190,0.0
2,14, 1,14, 0, 2, 0.00,60.00,Saturday
141,21962232.42157132
190,0.0
2,14, 1,14, 0, 3, 0.00,60.00,Saturday
141,22039008.217661407
190,0.0
2,14, 1,14, 0, 4, 0.00,60.00,Saturday
141,21901128.72317495
190,0.0
2,14, 1,14, 0, 5, 0.00,60.00,Saturday
141,21861286.62901086
190,0.0
2,14, 1,14, 0, 6, 0.00,60.00,Saturday
141,22795031.250855792
190,0.0
2,14, 1,14, 0, 7, 0.00,60.00,Saturday
141,23492642.478968404
190,0.0
2,14, 1,14, 0, 8, 0.00,60.00,Saturday
141,23252128.940851156
190,0.0
2,14, 1,14, 0, 9, 0.00,60.00,Saturday
141,23612369.96262023
190,0.0
2,14, 1,14, 0,10, 0.00,60.00,Saturday
141,24100671.37268917
190,0.0
2,14, 1,14, 0,11, 0.00,60.00,Saturday
141,23873687.164042663
190,0.0
2,14, 1,14, 0,12, 0.00,60.00,Saturday
141,23542683.069681972
190,0.0
2,14, 1,14, 0,13, 0.00,60.00,Saturday
141,22981349.463696875
190,0.0
2,14, 1,14, 0,14, 0.00,60.00,Saturday
141,21864319.2614293
190,0.0
2,14, 1,14, 0,15, 0.00,60.00,Saturday
141,21708377.230305627
190,0.0
2,14, 1,14, 0,16, 0.00,60.00,Saturday
141,21939877.24223154
190,0.0
2,14, 1,14, 0,17, 0.00,60.00,Saturday
141,22365341.40241743
190,0.0
2,14, 1,14, 0,18, 0.00,60.00,Saturday
141,23166426.168825343
190,0.0
2,14, 1,14, 0,19, 0.00,60.00,Saturday
141,23165392.532605406
190,0.0
2,14, 1,14, 0,20, 0.00,60.00,Saturday
141,23255019.69748898
190,0.0
2,14, 1,14, 0,21, 0.00,60.00,Saturday
141,23080720.300579213
190,0.0
2,14, 1,14, 0,22, 0.00,60.00,Saturday
141,22776489.20507346
190,0.0
2,14, 1,14, 0,23, 0.00,60.00,Saturday
141,22551515.68259081
190,0.0
2,14, 1,14, 0,24, 0.00,60.00,Saturday
141,22445208.435034033
190,0.0
2,15, 1,15, 0, 1, 0.00,60.00,Sunday
141,21930804.21782438
190,0.0
2,15, 1,15, 0, 2, 0.00,60.00,Sunday
141,20739507.935651522
190,0.0
2,15, 1,15, 0, 3, 0.00,60.00,Sunday
141,20152541.76168317
190,0.0
2,15, 1,15, 0, 4, 0.00,60.00,Sunday
141,19736889.09075888
190,0.0
2,15, 1,15, 0, 5, 0.00,60.00,Sunday
141,18985246.756283168
190,0.0
2,15, 1,15, 0, 6, 0.00,60.00,Sunday
141,18195783.39599485
190,0.0
2,15, 1,15, 0, 7, 0.00,60.00,Sunday
141,17417729.383420113
190,0.0
2,15, 1,15, 0, 8, 0.00,60.00,Sunday
141,16902181.763103902
190,0.0
2,15, 1,15, 0, 9, 0.00,60.00,Sunday
141,16511196.49174033
190,0.0
2,15, 1,15, 0,10, 0.00,60.00,Sunday
141,16454846.199612204
190,0.0
2,15, 1,15, 0,11, 0.00,60.00,Sunday
141,16865713.000109024
190,0.0
2,15, 1,15, 0,12, 0.00,60.00,Sunday
141,17926407.91775251
190,0.0
2,15, 1,15, 0,13, 0.00,60.00,Sunday
141,18711997.018539786
190,0.0
2,15, 1,15, 0,14, 0.00,60.00,Sunday
141,19039721.148621585
190,0.0
2,15, 1,15, 0,15, 0.00,60.00,Sunday
141,19173042.639119603
190,0.0
2,15, 1,15, 0,16, 0.00,60.00,Sunday
141,18919257.694568235
190,0.0
2,15, 1,15, 0,17, 0.00,60.00,Sunday
141,18747244.33391781
190,0.0
2,15, 1,15, 0,18, 0.00,60.00,Sunday
141,18821204.212309755
190,0.0
2,15, 1,15, 0,19, 0.00,60.00,Sunday
141,19005444.62562743
190,0.0
2,15, 1,15, 0,20, 0.00,60.00,Sunday
141,19241216.03065625
190,0.0
2,15, 1,15, 0,21, 0.00,60.00,Sunday
141,19734837.790935088
190,0.0
2,15, 1,15, 0,22, 0.00,60.00,Sunday
141,19959131.922115635
190,0.0
2,15, 1,15, 0,23, 0.00,60.00,Sunday
141,19990642.0914578
190,0.0
2,15, 1,15, 0,24, 0.00,60.00,Sunday
141,20117829.14086952
190,0.0
2,16, 1,16, 0, 1, 0.00,60.00,Monday
141,20568177.70290529
190,0.0
2,16, 1,16, 0, 2, 0.00,60.00,Monday
141,20989682.789245676
190,0.0
2,16, 1,16, 0, 3, 0.00,60.00,Monday
141,21227066.62324788
190,0.0
2,16, 1,16, 0, 4, 0.00,60.00,Monday
141,21400416.203953594
190,0.0
2,16, 1,16, 0, 5, 0.00,60.00,Monday
141,21659026.648426753
190,0.0
2,16, 1,16, 0, 6, 0.00,60.00,Monday
141,21880912.316934805
190,0.0
2,16, 1,16, 0, 7, 0.00,60.00,Monday
141,22335762.342325117
190,0.0
2,16, 1,16, 0, 8, 0.00,60.00,Monday
141,22762347.11289963
190,0.0
2,16, 1,16, 0, 9, 0.00,60.00,Monday
141,22942449.193668522
190,0.0
2,16, 1,16, 0,10, 0.00,60.00,Monday
141,22942033.883486092
190,0.0
2,16, 1,16, 0,11, 0.00,60.00,Monday
141,21981233.00083263
190,0.0
2,16, 1,16, 0,12, 0.00,60.00,Monday
141,21131784.951338027
190,0.0
2,16, 1,16, 0,13, 0.00,60.00,Monday
141,20471601.61751992
190,0.0
2,16, 1,16, 0,14, 0.00,60.00,Monday
141,20034830.30006211
190,0.0
2,16, 1,16, 0,15, 0.00,60.00,Monday
141,19989738.361213084
190,0.0
2,16, 1,16, 0,16, 0.00,60.00,Monday
141,20185430.591938026
190,0.0
2,16, 1,16, 0,17, 0.00,60.00,Monday
141,20658679.286082607
190,0.0
2,16, 1,16, 0,18, 0.00,60.00,Monday
141,21560500.336797528
190,0.0
2,16, 1,16, 0,19, 0.00,60.00,Monday
141,22506244.38005268
190,0.0
2,16, 1,16, 0,20, 0.00,60.00,Monday
141,22980655.435034264
190,0.0
2,16, 1,16, 0,21, 0.00,60.00,Monday
141,23352180.278339587
190,0.0
2,16, 1,16, 0,22, 0.00,60.00,Monday
141,23687712.726306066
190,0.0
2,16, 1,16, 0,23, 0.00,60.00,Monday
141,24199752.82366387
190,0.0
2,16, 1,16, 0,24, 0.00,60.00,Monday
141,24302905.199506637
190,0.0
2,17, 1,17, 0, 1, 0.00,60.00,Tuesday
141,24445393.097911753
190,0.0
2,17, 1,17, 0, 2, 0.00,60.00,Tuesday
141,25059871.22773064
190,0.0
2,17, 1,17, 0, 3, 0.00,60.00,Tuesday
141,25566004.079518933
190,0.0
2,17, 1,17, 0, 4, 0.00,60.00,Tuesday
141,25992124.437394537
190,0.0
2,17, 1,17, 0, 5, 0.00,60.00,Tuesday
141,26469012.09754919
190,0.0
2,17, 1,17, 0, 6, 0.00,60.00,Tuesday
141,26947725.581149638
190,0.0
2,17, 1,17, 0, 7, 0.00,60.00,Tuesday
141,27221219.419992298
190,0.0
2,17, 1,17, 0, 8, 0.00,60.00,Tuesday
141,27351833.35850703
190,0.0
2,17, 1,17, 0, 9, 0.00,60.00,Tuesday
141,27351277.182628293
190,0.0
2,17, 1,17, 0,10, 0.00,60.00,Tuesday
141,26223443.479359284
190,0.0
2,17, 1,17, 0,11, 0.00,60.00,Tuesday
141,24575601.474188153
190,0.0
2,17, 1,17, 0,12, 0.00,60.00,Tuesday
141,23151754.202120673
190,0.0
2,17, 1,17, 0,13, 0.00,60.00,Tuesday
141,22315311.22322072
190,0.0
2,17, 1,17, 0,14, 0.00,60.00,Tuesday
141,22124783.016801193
190,0.0
2,17, 1,17, 0,15, 0.00,60.00,Tuesday
141,22385972.425798543
190,0.0
2,17, 1,17, 0,16, 0.00,60.00,Tuesday
141,23176466.300761905
190,0.0
2,17, 1,17, 0,17, 0.00,60.00,Tuesday
141,23810267.311614506
190,0.0
2,17, 1,17, 0,18, 0.00,60.00,Tuesday
141,23886926.22727788
190,0.0
2,17, 1,17, 0,19, 0.00,60.00,Tuesday
141,23838839.25742637
190,0.0
2,17, 1,17, 0,20, 0.00,60.00,Tuesday
141,23982600.4061637
190,0.0
2,17, 1,17, 0,21, 0.00,60.00,Tuesday
141,24222134.845429484
190,0.0
2,17, 1,17, 0,22, 0.00,60.00,Tuesday
141,24255985.74713655
190,0.0
2,17, 1,17, 0,23, 0.00,60.00,Tuesday
141,24279190.041315734
190,0.0
2,17, 1,17, 0,24, 0.00,60.00,Tuesday
141,24603336.669714082
190,0.0
2,18, 1,18, 0, 1, 0.00,60.00,Wednesday
141,24802124.189832788
190,0.0
2,18, 1,18, 0, 2, 0.00,60.00,Wednesday
141,24939670.58243267
190,0.0
2,18, 1,18, 0, 3, 0.00,60.00,Wednesday
141,24969347.507002994
190,0.0
2,18, 1,18, 0, 4, 0.00,60.00,Wednesday
141,24922487.68027078
190,0.0
2,18, 1,18, 0, 5, 0.00,60.00,Wednesday
141,24926092.93784711
190,0.0
2,18, 1,18, 0, 6, 0.00,60.00,Wednesday
141,24997086.714548044
190,0.0
2,18, 1,18, 0, 7, 0.00,60.00,Wednesday
141,25523162.11142285
190,0.0
2,18, 1,18, 0, 8, 0.00,60.00,Wednesday
141,25667425.127070952
190,0.0
2,18, 1,18, 0, 9, 0.00,60.00,Wednesday
141,25737391.46659379
190,0.0
2,18, 1,18, 0,10, 0.00,60.00,Wednesday
141,25687798.442847244
190,0.0
2,18, 1,18, 0,11, 0.00,60.00,Wednesday
141,25145615.061389167
190,0.0
2,18, 1,18, 0,12, 0.00,60.00,Wednesday
141,24729405.0814752
190,0.0
2,18, 1,18, 0,13, 0.00,60.00,Wednesday
141,24907210.080119118
190,0.0
2,18, 1,18, 0,14, 0.00,60.00,Wednesday
141,25304825.61109597
190,0.0
2,18, 1,18, 0,15, 0.00,60.00,Wednesday
141,25520847.346336354
190,0.0
2,18, 1,18, 0,16, 0.00,60.00,Wednesday
141,25984296.4968335
190,0.0
2,18, 1,18, 0,17, 0.00,60.00,Wednesday
141,26218511.29565776
190,0.0
2,18, 1,18, 0,18, 0.00,60.00,Wednesday
141,26044630.598385144
190,0.0
2,18, 1,18, 0,19, 0.00,60.00,Wednesday
141,25960625.261155486
190,0.0
2,18, 1,18, 0,20, 0.00,60.00,Wednesday
141,26042653.763023548
190,0.0
2,18, 1,18, 0,21, 0.00,60.00,Wednesday
141,26101080.92704054
190,0.0
2,18, 1,18, 0,22, 0.00,60.00,Wednesday
141,26250286.343009815
190,0.0
2,18, 1,18, 0,23, 0.00,60.00,Wednesday
141,26358861.202267304
190,0.0
2,18, 1,18, 0,24, 0.00,60.00,Wednesday
141,26504693.69343146
190,0.0