Program Version,EnergyPlus, Version 24.2.0-94a887817b, YMD=2025.04.24 13:19
1,5,Environment Title[],Latitude[deg],Longitude[deg],Time Zone[],Elevation[m]
2,8,Day of Simulation[],Month[],Day of Month[],DST Indicator[1=yes 0=no],Hour[],StartMinute[],EndMinute[],DayType
3,5,Cumulative Day of Simulation[],Month[],Day of Month[],DST Indicator[1=yes 0=no],DayType  ! When Daily Report Variables Requested
4,2,Cumulative Days of Simulation[],Month[]  ! When Monthly Report Variables Requested
5,1,Cumulative Days of Simulation[] ! When Run Period Report Variables Requested
6,1,Calendar Year of Simulation[] ! When Annual Report Variables Requested
141,1,ZONE_0599100000129950 IDEAL LOADS AIR SYSTEM,Zone Ideal Loads Supply Air Total Heating Energy [J] !Hourly
190,1,ZONE_0599100000129950 IDEAL LOADS AIR SYSTEM,Zone Ideal Loads Supply Air Total Cooling Energy [J] !Hourly
End of Data Dictionary
1,RUN PERIOD 1,  51.96,   4.45,   1.00,  -4.50
2,1, 1, 1, 0, 1, 0.00,60.00,Sunday
141,75310509.52463333
190,0.0
2,1, 1, 1, 0, 2, 0.00,60.00,Sunday
141,77477035.46959265
190,0.0
2,1, 1, 1, 0, 3, 0.00,60.00,Sunday
141,77528272.82808997
190,0.0
2,1, 1, 1, 0, 4, 0.00,60.00,Sunday
141,79164927.88708848
190,0.0
2,1, 1, 1, 0, 5, 0.00,60.00,Sunday
141,80357354.6798182
190,0.0
2,1, 1, 1, 0, 6, 0.00,60.00,Sunday
141,80665475.81780866
190,0.0
2,1, 1, 1, 0, 7, 0.00,60.00,Sunday
141,81088497.0845596
190,0.0
2,1, 1, 1, 0, 8, 0.00,60.00,Sunday
141,81220416.96255098
190,0.0
2,1, 1, 1, 0, 9, 0.00,60.00,Sunday
141,81397119.54725759
190,0.0
2,1, 1, 1, 0,10, 0.00,60.00,Sunday
141,81218184.57789147
190,0.0
2,1, 1, 1, 0,11, 0.00,60.00,Sunday
141,80257059.02879779
190,0.0
2,1, 1, 1, 0,12, 0.00,60.00,Sunday
141,78457558.08407731
190,0.0
2,1, 1, 1, 0,13, 0.00,60.00,Sunday
141,77591309.07085702
190,0.0
2,1, 1, 1, 0,14, 0.00,60.00,Sunday
141,76132029.70636308
190,0.0
2,1, 1, 1, 0,15, 0.00,60.00,Sunday
141,74853183.12090796
190,0.0
2,1, 1, 1, 0,16, 0.00,60.00,Sunday
141,75295188.0674299
190,0.0
2,1, 1, 1, 0,17, 0.00,60.00,Sunday
141,75884454.36248152
190,0.0
2,1, 1, 1, 0,18, 0.00,60.00,Sunday
141,75684787.79361387
190,0.0
2,1, 1, 1, 0,19, 0.00,60.00,Sunday
141,75562264.75713523
190,0.0
2,1, 1, 1, 0,20, 0.00,60.00,Sunday
141,75196047.71302241
190,0.0
2,1, 1, 1, 0,21, 0.00,60.00,Sunday
141,74835755.4051372
190,0.0
2,1, 1, 1, 0,22, 0.00,60.00,Sunday
141,74914811.45522895
190,0.0
2,1, 1, 1, 0,23, 0.00,60.00,Sunday
141,73486208.68138768
190,0.0
2,1, 1, 1, 0,24, 0.00,60.00,Sunday
141,72476687.49126294
190,0.0
2,2, 1, 2, 0, 1, 0.00,60.00,Monday
141,72756263.5589622
190,0.0
2,2, 1, 2, 0, 2, 0.00,60.00,Monday
141,71372681.96741654
190,0.0
2,2, 1, 2, 0, 3, 0.00,60.00,Monday
141,70306865.32297742
190,0.0
2,2, 1, 2, 0, 4, 0.00,60.00,Monday
141,69192820.83695808
190,0.0
2,2, 1, 2, 0, 5, 0.00,60.00,Monday
141,66678581.71607274
190,0.0
2,2, 1, 2, 0, 6, 0.00,60.00,Monday
141,65413377.98592434
190,0.0
2,2, 1, 2, 0, 7, 0.00,60.00,Monday
141,63407863.72909853
190,0.0
2,2, 1, 2, 0, 8, 0.00,60.00,Monday
141,60923248.0020581
190,0.0
2,2, 1, 2, 0, 9, 0.00,60.00,Monday
141,61338723.51959204
190,0.0
2,2, 1, 2, 0,10, 0.00,60.00,Monday
141,62680725.15120733
190,0.0
2,2, 1, 2, 0,11, 0.00,60.00,Monday
141,63426994.109858185
190,0.0
2,2, 1, 2, 0,12, 0.00,60.00,Monday
141,62048574.2235004
190,0.0
2,2, 1, 2, 0,13, 0.00,60.00,Monday
141,61338269.59137508
190,0.0
2,2, 1, 2, 0,14, 0.00,60.00,Monday
141,62355851.532796055
190,0.0
2,2, 1, 2, 0,15, 0.00,60.00,Monday
141,62819581.586438164
190,0.0
2,2, 1, 2, 0,16, 0.00,60.00,Monday
141,63961430.28853508
190,0.0
2,2, 1, 2, 0,17, 0.00,60.00,Monday
141,65145934.89083502
190,0.0
2,2, 1, 2, 0,18, 0.00,60.00,Monday
141,65505671.66730883
190,0.0
2,2, 1, 2, 0,19, 0.00,60.00,Monday
141,66915043.46601768
190,0.0
2,2, 1, 2, 0,20, 0.00,60.00,Monday
141,68270161.11675642
190,0.0
2,2, 1, 2, 0,21, 0.00,60.00,Monday
141,68740371.1107605
190,0.0
2,2, 1, 2, 0,22, 0.00,60.00,Monday
141,69029504.48948249
190,0.0
2,2, 1, 2, 0,23, 0.00,60.00,Monday
141,69422815.55825996
190,0.0
2,2, 1, 2, 0,24, 0.00,60.00,Monday
141,69850635.24508448
190,0.0
2,3, 1, 3, 0, 1, 0.00,60.00,Tuesday
141,70306015.50572157
190,0.0
2,3, 1, 3, 0, 2, 0.00,60.00,Tuesday
141,70639253.44713107
190,0.0
2,3, 1, 3, 0, 3, 0.00,60.00,Tuesday
141,70902653.35202791
190,0.0
2,3, 1, 3, 0, 4, 0.00,60.00,Tuesday
141,71319421.87109515
190,0.0
2,3, 1, 3, 0, 5, 0.00,60.00,Tuesday
141,72851080.69707057
190,0.0
2,3, 1, 3, 0, 6, 0.00,60.00,Tuesday
141,73805286.04231802
190,0.0
2,3, 1, 3, 0, 7, 0.00,60.00,Tuesday
141,74227743.46192859
190,0.0
2,3, 1, 3, 0, 8, 0.00,60.00,Tuesday
141,74055348.93544015
190,0.0
2,3, 1, 3, 0, 9, 0.00,60.00,Tuesday
141,75116164.76345801
190,0.0
2,3, 1, 3, 0,10, 0.00,60.00,Tuesday
141,75581670.06700245
190,0.0
2,3, 1, 3, 0,11, 0.00,60.00,Tuesday
141,75638248.04375926
190,0.0
2,3, 1, 3, 0,12, 0.00,60.00,Tuesday
141,75909008.61020999
190,0.0
2,3, 1, 3, 0,13, 0.00,60.00,Tuesday
141,77620733.31342968
190,0.0
2,3, 1, 3, 0,14, 0.00,60.00,Tuesday
141,78597692.10865358
190,0.0
2,3, 1, 3, 0,15, 0.00,60.00,Tuesday
141,78415342.33408858
190,0.0
2,3, 1, 3, 0,16, 0.00,60.00,Tuesday
141,78229353.72802463
190,0.0
2,3, 1, 3, 0,17, 0.00,60.00,Tuesday
141,78261975.27215566
190,0.0
2,3, 1, 3, 0,18, 0.00,60.00,Tuesday
141,78352463.78519243
190,0.0
2,3, 1, 3, 0,19, 0.00,60.00,Tuesday
141,78001655.28462735
190,0.0
2,3, 1, 3, 0,20, 0.00,60.00,Tuesday
141,76561107.60412663
190,0.0
2,3, 1, 3, 0,21, 0.00,60.00,Tuesday
141,72829541.83294074
190,0.0
2,3, 1, 3, 0,22, 0.00,60.00,Tuesday
141,70902699.26349652
190,0.0
2,3, 1, 3, 0,23, 0.00,60.00,Tuesday
141,72449936.90831985
190,0.0
2,3, 1, 3, 0,24, 0.00,60.00,Tuesday
141,75003959.96341792
190,0.0
2,4, 1, 4, 0, 1, 0.00,60.00,Wednesday
141,76328675.78234059
190,0.0
2,4, 1, 4, 0, 2, 0.00,60.00,Wednesday
141,76289307.19347191
190,0.0
2,4, 1, 4, 0, 3, 0.00,60.00,Wednesday
141,76142238.35019296
190,0.0
2,4, 1, 4, 0, 4, 0.00,60.00,Wednesday
141,76795058.51765169
190,0.0
2,4, 1, 4, 0, 5, 0.00,60.00,Wednesday
141,78619413.53717253
190,0.0
2,4, 1, 4, 0, 6, 0.00,60.00,Wednesday
141,78376522.86984593
190,0.0
2,4, 1, 4, 0, 7, 0.00,60.00,Wednesday
141,78425126.27595952
190,0.0
2,4, 1, 4, 0, 8, 0.00,60.00,Wednesday
141,79152151.2208504
190,0.0
2,4, 1, 4, 0, 9, 0.00,60.00,Wednesday
141,79672596.67510605
190,0.0
2,4, 1, 4, 0,10, 0.00,60.00,Wednesday
141,80094026.2095453
190,0.0
2,4, 1, 4, 0,11, 0.00,60.00,Wednesday
141,77273857.80088499
190,0.0
2,4, 1, 4, 0,12, 0.00,60.00,Wednesday
141,72516939.06252289
190,0.0
2,4, 1, 4, 0,13, 0.00,60.00,Wednesday
141,71388029.0066473
190,0.0
2,4, 1, 4, 0,14, 0.00,60.00,Wednesday
141,71352818.78009441
190,0.0
2,4, 1, 4, 0,15, 0.00,60.00,Wednesday
141,70916969.28676347
190,0.0
2,4, 1, 4, 0,16, 0.00,60.00,Wednesday
141,72863734.4581838
190,0.0
2,4, 1, 4, 0,17, 0.00,60.00,Wednesday
141,76339473.88881858
190,0.0
2,4, 1, 4, 0,18, 0.00,60.00,Wednesday
141,79311512.07193334
190,0.0
2,4, 1, 4, 0,19, 0.00,60.00,Wednesday
141,82367277.71153438
190,0.0
2,4, 1, 4, 0,20, 0.00,60.00,Wednesday
141,83997580.55763607
190,0.0
2,4, 1, 4, 0,21, 0.00,60.00,Wednesday
141,84839451.71268302
190,0.0
2,4, 1, 4, 0,22, 0.00,60.00,Wednesday
141,86602577.43282099
190,0.0
2,4, 1, 4, 0,23, 0.00,60.00,Wednesday
141,86265597.5172265
190,0.0
2,4, 1, 4, 0,24, 0.00,60.00,Wednesday
141,85559737.02172709
190,0.0
2,5, 1, 5, 0, 1, 0.00,60.00,Thursday
141,86446274.50689551
190,0.0
2,5, 1, 5, 0, 2, 0.00,60.00,Thursday
141,86139459.16792862
190,0.0
2,5, 1, 5, 0, 3, 0.00,60.00,Thursday
141,85813685.961695
190,0.0
2,5, 1, 5, 0, 4, 0.00,60.00,Thursday
141,86322014.23944786
190,0.0
2,5, 1, 5, 0, 5, 0.00,60.00,Thursday
141,85731413.85558388
190,0.0
2,5, 1, 5, 0, 6, 0.00,60.00,Thursday
141,85550133.18846397
190,0.0
2,5, 1, 5, 0, 7, 0.00,60.00,Thursday
141,86222282.45951906
190,0.0
2,5, 1, 5, 0, 8, 0.00,60.00,Thursday
141,86750592.07090792
190,0.0
2,5, 1, 5, 0, 9, 0.00,60.00,Thursday
141,86893091.21540782
190,0.0
2,5, 1, 5, 0,10, 0.00,60.00,Thursday
141,87758455.61300601
190,0.0
2,5, 1, 5, 0,11, 0.00,60.00,Thursday
141,87396254.95971686
190,0.0
2,5, 1, 5, 0,12, 0.00,60.00,Thursday
141,85139118.08225381
190,0.0
2,5, 1, 5, 0,13, 0.00,60.00,Thursday
141,84151670.64847134
190,0.0
2,5, 1, 5, 0,14, 0.00,60.00,Thursday
141,82246537.19549567
190,0.0
2,5, 1, 5, 0,15, 0.00,60.00,Thursday
141,80500434.08043139
190,0.0
2,5, 1, 5, 0,16, 0.00,60.00,Thursday
141,80818231.83244534
190,0.0
2,5, 1, 5, 0,17, 0.00,60.00,Thursday
141,79866462.98360169
190,0.0
2,5, 1, 5, 0,18, 0.00,60.00,Thursday
141,78540327.83385229
190,0.0
2,5, 1, 5, 0,19, 0.00,60.00,Thursday
141,78315893.20203646
190,0.0
2,5, 1, 5, 0,20, 0.00,60.00,Thursday
141,77752186.99408574
190,0.0
2,5, 1, 5, 0,21, 0.00,60.00,Thursday
141,77128961.40451863
190,0.0
2,5, 1, 5, 0,22, 0.00,60.00,Thursday
141,76849783.92916454
190,0.0
2,5, 1, 5, 0,23, 0.00,60.00,Thursday
141,76907788.53599755
190,0.0
2,5, 1, 5, 0,24, 0.00,60.00,Thursday
141,77041068.45237601
190,0.0
2,6, 1, 6, 0, 1, 0.00,60.00,Friday
141,77089333.73991162
190,0.0
2,6, 1, 6, 0, 2, 0.00,60.00,Friday
141,77148750.71730533
190,0.0
2,6, 1, 6, 0, 3, 0.00,60.00,Friday
141,78405843.99229416
190,0.0
2,6, 1, 6, 0, 4, 0.00,60.00,Friday
141,79638112.35740002
190,0.0
2,6, 1, 6, 0, 5, 0.00,60.00,Friday
141,80249302.19670609
190,0.0
2,6, 1, 6, 0, 6, 0.00,60.00,Friday
141,81050588.12323707
190,0.0
2,6, 1, 6, 0, 7, 0.00,60.00,Friday
141,82309458.00324698
190,0.0
2,6, 1, 6, 0, 8, 0.00,60.00,Friday
141,83552103.64110807
190,0.0
2,6, 1, 6, 0, 9, 0.00,60.00,Friday
141,85100218.16099943
190,0.0
2,6, 1, 6, 0,10, 0.00,60.00,Friday
141,86126062.94706887
190,0.0
2,6, 1, 6, 0,11, 0.00,60.00,Friday
141,85395599.71172056
190,0.0
2,6, 1, 6, 0,12, 0.00,60.00,Friday
141,84161365.19661506
190,0.0
2,6, 1, 6, 0,13, 0.00,60.00,Friday
141,83681798.42737985
190,0.0
2,6, 1, 6, 0,14, 0.00,60.00,Friday
141,83504271.63975959
190,0.0
2,6, 1, 6, 0,15, 0.00,60.00,Friday
141,83036489.15689339
190,0.0
2,6, 1, 6, 0,16, 0.00,60.00,Friday
141,81869934.20345655
190,0.0
2,6, 1, 6, 0,17, 0.00,60.00,Friday
141,80592016.17875212
190,0.0
2,6, 1, 6, 0,18, 0.00,60.00,Friday
141,79849677.64563592
190,0.0
2,6, 1, 6, 0,19, 0.00,60.00,Friday
141,79120562.33918701
190,0.0
2,6, 1, 6, 0,20, 0.00,60.00,Friday
141,77748404.4401445
190,0.0
2,6, 1, 6, 0,21, 0.00,60.00,Friday
141,74544895.1228248
190,0.0
2,6, 1, 6, 0,22, 0.00,60.00,Friday
141,70777653.95228875
190,0.0
2,6, 1, 6, 0,23, 0.00,60.00,Friday
141,69199900.60036401
190,0.0
2,6, 1, 6, 0,24, 0.00,60.00,Friday
141,69720316.46589968
190,0.0
2,7, 1, 7, 0, 1, 0.00,60.00,Saturday
141,72912662.03654239
190,0.0
2,7, 1, 7, 0, 2, 0.00,60.00,Saturday
141,76027801.42815524
190,0.0
2,7, 1, 7, 0, 3, 0.00,60.00,Saturday
141,75526741.12160583
190,0.0
2,7, 1, 7, 0, 4, 0.00,60.00,Saturday
141,75731608.37705547
190,0.0
2,7, 1, 7, 0, 5, 0.00,60.00,Saturday
141,77854383.82223877
190,0.0
2,7, 1, 7, 0, 6, 0.00,60.00,Saturday
141,79533766.18315695
190,0.0
2,7, 1, 7, 0, 7, 0.00,60.00,Saturday
141,80543521.56607227
190,0.0
2,7, 1, 7, 0, 8, 0.00,60.00,Saturday
141,81091183.40586618
190,0.0
2,7, 1, 7, 0, 9, 0.00,60.00,Saturday
141,80000531.91228223
190,0.0
2,7, 1, 7, 0,10, 0.00,60.00,Saturday
141,79087305.95767747
190,0.0
2,7, 1, 7, 0,11, 0.00,60.00,Saturday
141,76127627.18170053
190,0.0
2,7, 1, 7, 0,12, 0.00,60.00,Saturday
141,73110272.49064755
190,0.0
2,7, 1, 7, 0,13, 0.00,60.00,Saturday
141,70800067.06222847
190,0.0
2,7, 1, 7, 0,14, 0.00,60.00,Saturday
141,69354887.63004795
190,0.0
2,7, 1, 7, 0,15, 0.00,60.00,Saturday
141,69272263.34955354
190,0.0
2,7, 1, 7, 0,16, 0.00,60.00,Saturday
141,69494744.90954143
190,0.0
2,7, 1, 7, 0,17, 0.00,60.00,Saturday
141,69426616.76538897
190,0.0
2,7, 1, 7, 0,18, 0.00,60.00,Saturday
141,70067690.51313941
190,0.0
2,7, 1, 7, 0,19, 0.00,60.00,Saturday
141,70781805.32604653
190,0.0
2,7, 1, 7, 0,20, 0.00,60.00,Saturday
141,71667303.13108185
190,0.0
2,7, 1, 7, 0,21, 0.00,60.00,Saturday
141,72366949.11069307
190,0.0
2,7, 1, 7, 0,22, 0.00,60.00,Saturday
141,72289716.00011544
190,0.0
2,7, 1, 7, 0,23, 0.00,60.00,Saturday
141,72496403.78234938
190,0.0
2,7, 1, 7, 0,24, 0.00,60.00,Saturday
141,72569715.59912653
190,0.0
2,8, 1, 8, 0, 1, 0.00,60.00,Sunday
141,71949958.28906274
190,0.0
2,8, 1, 8, 0, 2, 0.00,60.00,Sunday
141,71300478.47829121
190,0.0
2,8, 1, 8, 0, 3, 0.00,60.00,Sunday
141,70824132.11938548
190,0.0
2,8, 1, 8, 0, 4, 0.00,60.00,Sunday
141,69920005.09983966
190,0.0
2,8, 1, 8, 0, 5, 0.00,60.00,Sunday
141,68639996.24876924
190,0.0
2,8, 1, 8, 0, 6, 0.00,60.00,Sunday
141,67678787.17804715
190,0.0
2,8, 1, 8, 0, 7, 0.00,60.00,Sunday
141,66898937.81776407
190,0.0
2,8, 1, 8, 0, 8, 0.00,60.00,Sunday
141,66139026.41126429
190,0.0
2,8, 1, 8, 0, 9, 0.00,60.00,Sunday
141,65230792.589030385
190,0.0
2,8, 1, 8, 0,10, 0.00,60.00,Sunday
141,64836599.94746637
190,0.0
2,8, 1, 8, 0,11, 0.00,60.00,Sunday
141,64434966.874696165
190,0.0
2,8, 1, 8, 0,12, 0.00,60.00,Sunday
141,64373370.035990745
190,0.0
2,8, 1, 8, 0,13, 0.00,60.00,Sunday
141,63922808.18609777
190,0.0
2,8, 1, 8, 0,14, 0.00,60.00,Sunday
141,63831220.71803373
190,0.0
2,8, 1, 8, 0,15, 0.00,60.00,Sunday
141,65487312.385513216
190,0.0
2,8, 1, 8, 0,16, 0.00,60.00,Sunday
141,66644863.731191576
190,0.0
2,8, 1, 8, 0,17, 0.00,60.00,Sunday
141,66535886.93981032
190,0.0
2,8, 1, 8, 0,18, 0.00,60.00,Sunday
141,67064513.08377567
190,0.0
2,8, 1, 8, 0,19, 0.00,60.00,Sunday
141,66733167.958803155
190,0.0
2,8, 1, 8, 0,20, 0.00,60.00,Sunday
141,65626734.49076036
190,0.0
2,8, 1, 8, 0,21, 0.00,60.00,Sunday
141,64882670.73798986
190,0.0
2,8, 1, 8, 0,22, 0.00,60.00,Sunday
141,65248497.327132866
190,0.0
2,8, 1, 8, 0,23, 0.00,60.00,Sunday
141,65609393.2633996
190,0.0
2,8, 1, 8, 0,24, 0.00,60.00,Sunday
141,66436704.162778884
190,0.0
2,9, 1, 9, 0, 1, 0.00,60.00,Monday
141,66699404.684369326
190,0.0
2,9, 1, 9, 0, 2, 0.00,60.00,Monday
141,66914484.76204587
190,0.0
2,9, 1, 9, 0, 3, 0.00,60.00,Monday
141,66891085.39160857
190,0.0
2,9, 1, 9, 0, 4, 0.00,60.00,Monday
141,66607956.76018769
190,0.0
2,9, 1, 9, 0, 5, 0.00,60.00,Monday
141,65769370.28625916
190,0.0
2,9, 1, 9, 0, 6, 0.00,60.00,Monday
141,64877003.28112575
190,0.0
2,9, 1, 9, 0, 7, 0.00,60.00,Monday
141,64204665.0951876
190,0.0
2,9, 1, 9, 0, 8, 0.00,60.00,Monday
141,63798368.77857502
190,0.0
2,9, 1, 9, 0, 9, 0.00,60.00,Monday
141,62678155.46486309
190,0.0
2,9, 1, 9, 0,10, 0.00,60.00,Monday
141,60029837.71990524
190,0.0
2,9, 1, 9, 0,11, 0.00,60.00,Monday
141,57747201.96383439
190,0.0
2,9, 1, 9, 0,12, 0.00,60.00,Monday
141,56409203.22446861
190,0.0
2,9, 1, 9, 0,13, 0.00,60.00,Monday
141,55222126.26127542
190,0.0
2,9, 1, 9, 0,14, 0.00,60.00,Monday
141,54228517.81998627
190,0.0
2,9, 1, 9, 0,15, 0.00,60.00,Monday
141,53648264.29912434
190,0.0
2,9, 1, 9, 0,16, 0.00,60.00,Monday
141,53804148.93697485
190,0.0
2,9, 1, 9, 0,17, 0.00,60.00,Monday
141,55190586.4986155
190,0.0
2,9, 1, 9, 0,18, 0.00,60.00,Monday
141,56526184.83380267
190,0.0
2,9, 1, 9, 0,19, 0.00,60.00,Monday
141,56164094.9987503
190,0.0
2,9, 1, 9, 0,20, 0.00,60.00,Monday
141,53710313.26519055
190,0.0
2,9, 1, 9, 0,21, 0.00,60.00,Monday
141,51249267.377007715
190,0.0
2,9, 1, 9, 0,22, 0.00,60.00,Monday
141,49653473.175105244
190,0.0
2,9, 1, 9, 0,23, 0.00,60.00,Monday
141,49141871.826904856
190,0.0
2,9, 1, 9, 0,24, 0.00,60.00,Monday
141,48960305.483177625
190,0.0
2,10, 1,10, 0, 1, 0.00,60.00,Tuesday
141,49197460.30922857
190,0.0
2,10, 1,10, 0, 2, 0.00,60.00,Tuesday
141,49197898.483709544
190,0.0
2,10, 1,10, 0, 3, 0.00,60.00,Tuesday
141,48839376.61240769
190,0.0
2,10, 1,10, 0, 4, 0.00,60.00,Tuesday
141,49123317.78940003
190,0.0
2,10, 1,10, 0, 5, 0.00,60.00,Tuesday
141,48986006.52436237
190,0.0
2,10, 1,10, 0, 6, 0.00,60.00,Tuesday
141,48711271.952745415
190,0.0
2,10, 1,10, 0, 7, 0.00,60.00,Tuesday
141,48500419.768868126
190,0.0
2,10, 1,10, 0, 8, 0.00,60.00,Tuesday
141,47997112.93038927
190,0.0
2,10, 1,10, 0, 9, 0.00,60.00,Tuesday
141,47428230.20993464
190,0.0
2,10, 1,10, 0,10, 0.00,60.00,Tuesday
141,46766072.16667988
190,0.0
2,10, 1,10, 0,11, 0.00,60.00,Tuesday
141,45908757.63556544
190,0.0
2,10, 1,10, 0,12, 0.00,60.00,Tuesday
141,44964527.7119185
190,0.0
2,10, 1,10, 0,13, 0.00,60.00,Tuesday
141,44701755.581774585
190,0.0
2,10, 1,10, 0,14, 0.00,60.00,Tuesday
141,47545112.63692373
190,0.0
2,10, 1,10, 0,15, 0.00,60.00,Tuesday
141,49856721.75638185
190,0.0
2,10, 1,10, 0,16, 0.00,60.00,Tuesday
141,51321956.14225115
190,0.0
2,10, 1,10, 0,17, 0.00,60.00,Tuesday
141,52943900.3372644
190,0.0
2,10, 1,10, 0,18, 0.00,60.00,Tuesday
141,55139039.98209253
190,0.0
2,10, 1,10, 0,19, 0.00,60.00,Tuesday
141,56567663.73375721
190,0.0
2,10, 1,10, 0,20, 0.00,60.00,Tuesday
141,57928953.940890744
190,0.0
2,10, 1,10, 0,21, 0.00,60.00,Tuesday
141,59935764.05704481
190,0.0
2,10, 1,10, 0,22, 0.00,60.00,Tuesday
141,61547965.22247657
190,0.0
2,10, 1,10, 0,23, 0.00,60.00,Tuesday
141,62098270.41430678
190,0.0
2,10, 1,10, 0,24, 0.00,60.00,Tuesday
141,63957271.30608082
190,0.0
2,11, 1,11, 0, 1, 0.00,60.00,Wednesday
141,65152433.43963476
190,0.0
2,11, 1,11, 0, 2, 0.00,60.00,Wednesday
141,66330090.24960699
190,0.0
2,11, 1,11, 0, 3, 0.00,60.00,Wednesday
141,67771752.95078541
190,0.0
2,11, 1,11, 0, 4, 0.00,60.00,Wednesday
141,68023982.17118245
190,0.0
2,11, 1,11, 0, 5, 0.00,60.00,Wednesday
141,68301044.57516077
190,0.0
2,11, 1,11, 0, 6, 0.00,60.00,Wednesday
141,68708825.07388972
190,0.0
2,11, 1,11, 0, 7, 0.00,60.00,Wednesday
141,69329079.96837275
190,0.0
2,11, 1,11, 0, 8, 0.00,60.00,Wednesday
141,69877624.89307868
190,0.0
2,11, 1,11, 0, 9, 0.00,60.00,Wednesday
141,70014311.76362324
190,0.0
2,11, 1,11, 0,10, 0.00,60.00,Wednesday
141,69865508.7838541
190,0.0
2,11, 1,11, 0,11, 0.00,60.00,Wednesday
141,69421806.91211991
190,0.0
2,11, 1,11, 0,12, 0.00,60.00,Wednesday
141,68515840.9079363
190,0.0
2,11, 1,11, 0,13, 0.00,60.00,Wednesday
141,67690283.61171888
190,0.0
2,11, 1,11, 0,14, 0.00,60.00,Wednesday
141,67108074.95807941
190,0.0
2,11, 1,11, 0,15, 0.00,60.00,Wednesday
141,66562209.96082152
190,0.0
2,11, 1,11, 0,16, 0.00,60.00,Wednesday
141,65965783.612645864
190,0.0
2,11, 1,11, 0,17, 0.00,60.00,Wednesday
141,64734702.89458212
190,0.0
2,11, 1,11, 0,18, 0.00,60.00,Wednesday
141,63559939.83972438
190,0.0
2,11, 1,11, 0,19, 0.00,60.00,Wednesday
141,62659374.50561014
190,0.0
2,11, 1,11, 0,20, 0.00,60.00,Wednesday
141,62220016.75619325
190,0.0
2,11, 1,11, 0,21, 0.00,60.00,Wednesday
141,61934621.48433536
190,0.0
2,11, 1,11, 0,22, 0.00,60.00,Wednesday
141,60691255.22179126
190,0.0
2,11, 1,11, 0,23, 0.00,60.00,Wednesday
141,59753560.33813737
190,0.0
2,11, 1,11, 0,24, 0.00,60.00,Wednesday
141,59736458.34961112
190,0.0
2,12, 1,12, 0, 1, 0.00,60.00,Thursday
141,60059908.85644336
190,0.0
2,12, 1,12, 0, 2, 0.00,60.00,Thursday
141,60041084.437827826
190,0.0
2,12, 1,12, 0, 3, 0.00,60.00,Thursday
141,59720292.36666268
190,0.0
2,12, 1,12, 0, 4, 0.00,60.00,Thursday
141,59696729.59813353
190,0.0
2,12, 1,12, 0, 5, 0.00,60.00,Thursday
141,60022325.57073333
190,0.0
2,12, 1,12, 0, 6, 0.00,60.00,Thursday
141,60863280.222016424
190,0.0
2,12, 1,12, 0, 7, 0.00,60.00,Thursday
141,61302773.76340456
190,0.0
2,12, 1,12, 0, 8, 0.00,60.00,Thursday
141,61387352.77716879
190,0.0
2,12, 1,12, 0, 9, 0.00,60.00,Thursday
141,60742210.863520145
190,0.0
2,12, 1,12, 0,10, 0.00,60.00,Thursday
141,59374944.93224826
190,0.0
2,12, 1,12, 0,11, 0.00,60.00,Thursday
141,58331012.492019325
190,0.0
2,12, 1,12, 0,12, 0.00,60.00,Thursday
141,57733969.35242047
190,0.0
2,12, 1,12, 0,13, 0.00,60.00,Thursday
141,56985893.36061854
190,0.0
2,12, 1,12, 0,14, 0.00,60.00,Thursday
141,56212865.61228366
190,0.0
2,12, 1,12, 0,15, 0.00,60.00,Thursday
141,56257467.97833902
190,0.0
2,12, 1,12, 0,16, 0.00,60.00,Thursday
141,56661030.85493037
190,0.0
2,12, 1,12, 0,17, 0.00,60.00,Thursday
141,58339474.51836747
190,0.0
2,12, 1,12, 0,18, 0.00,60.00,Thursday
141,59322066.13581003
190,0.0
2,12, 1,12, 0,19, 0.00,60.00,Thursday
141,58956726.7691745
190,0.0
2,12, 1,12, 0,20, 0.00,60.00,Thursday
141,58070109.63685984
190,0.0
2,12, 1,12, 0,21, 0.00,60.00,Thursday
141,57702955.20528518
190,0.0
2,12, 1,12, 0,22, 0.00,60.00,Thursday
141,57055408.85301425
190,0.0
2,12, 1,12, 0,23, 0.00,60.00,Thursday
141,56733290.40658168
190,0.0
2,12, 1,12, 0,24, 0.00,60.00,Thursday
141,56631072.15722298
190,0.0
2,13, 1,13, 0, 1, 0.00,60.00,Friday
141,56043512.64910749
190,0.0
2,13, 1,13, 0, 2, 0.00,60.00,Friday
141,55458910.435742445
190,0.0
2,13, 1,13, 0, 3, 0.00,60.00,Friday
141,54675550.162308276
190,0.0
2,13, 1,13, 0, 4, 0.00,60.00,Friday
141,54094740.444754064
190,0.0
2,13, 1,13, 0, 5, 0.00,60.00,Friday
141,53806500.70659304
190,0.0
2,13, 1,13, 0, 6, 0.00,60.00,Friday
141,53657550.821425974
190,0.0
2,13, 1,13, 0, 7, 0.00,60.00,Friday
141,53764233.58611195
190,0.0
2,13, 1,13, 0, 8, 0.00,60.00,Friday
141,53583313.44062154
190,0.0
2,13, 1,13, 0, 9, 0.00,60.00,Friday
141,52991381.39147938
190,0.0
2,13, 1,13, 0,10, 0.00,60.00,Friday
141,53841187.11284988
190,0.0
2,13, 1,13, 0,11, 0.00,60.00,Friday
141,54852399.95177432
190,0.0
2,13, 1,13, 0,12, 0.00,60.00,Friday
141,54849422.44377247
190,0.0
2,13, 1,13, 0,13, 0.00,60.00,Friday
141,54963819.322374485
190,0.0
2,13, 1,13, 0,14, 0.00,60.00,Friday
141,55695595.90865746
190,0.0
2,13, 1,13, 0,15, 0.00,60.00,Friday
141,56155100.621856645
190,0.0
2,13, 1,13, 0,16, 0.00,60.00,Friday
141,56128217.91942847
190,0.0
2,13, 1,13, 0,17, 0.00,60.00,Friday
141,56001416.0869304
190,0.0
2,13, 1,13, 0,18, 0.00,60.00,Friday
141,55952805.99364491
190,0.0
2,13, 1,13, 0,19, 0.00,60.00,Friday
141,56639777.77350716
190,0.0
2,13, 1,13, 0,20, 0.00,60.00,Friday
141,57833993.68240007
190,0.0
2,13, 1,13, 0,21, 0.00,60.00,Friday
141,58952780.08819206
190,0.0
2,13, 1,13, 0,22, 0.00,60.00,Friday
141,59805094.34677036
190,0.0
2,13, 1,13, 0,23, 0.00,60.00,Friday
141,59884252.01921421
190,0.0
2,13, 1,13, 0,24, 0.00,60.00,Friday
141,63066297.08645303
190,0.0
2,14, 1,14, 0, 1, 0.00,60.00,Saturday
141,65428260.10532432
190,0.0
2,14, 1,14, 0, 2, 0.00,60.00,Saturday
141,65081070.97441156
190,0.0
2,14, 1,14, 0, 3, 0.00,60.00,Saturday
141,65638421.195502065
190,0.0
2,14, 1,14, 0, 4, 0.00,60.00,Saturday
141,65689183.61204004
190,0.0
2,14, 1,14, 0, 5, 0.00,60.00,Saturday
141,65913600.973859295
190,0.0
2,14, 1,14, 0, 6, 0.00,60.00,Saturday
141,68234474.64985318
190,0.0
2,14, 1,14, 0, 7, 0.00,60.00,Saturday
141,70115106.43939717
190,0.0
2,14, 1,14, 0, 8, 0.00,60.00,Saturday
141,70071732.83554733
190,0.0
2,14, 1,14, 0, 9, 0.00,60.00,Saturday
141,71402151.92805624
190,0.0
2,14, 1,14, 0,10, 0.00,60.00,Saturday
141,73055844.13087723
190,0.0
2,14, 1,14, 0,11, 0.00,60.00,Saturday
141,73151871.53512672
190,0.0
2,14, 1,14, 0,12, 0.00,60.00,Saturday
141,72943360.97203992
190,0.0
2,14, 1,14, 0,13, 0.00,60.00,Saturday
141,72120436.85975866
190,0.0
2,14, 1,14, 0,14, 0.00,60.00,Saturday
141,69955796.39056265
190,0.0
2,14, 1,14, 0,15, 0.00,60.00,Saturday
141,69688964.42717505
190,0.0
2,14, 1,14, 0,16, 0.00,60.00,Saturday
141,70082367.99585901
190,0.0
2,14, 1,14, 0,17, 0.00,60.00,Saturday
141,70801423.6335642
190,0.0
2,14, 1,14, 0,18, 0.00,60.00,Saturday
141,72431115.25948091
190,0.0
2,14, 1,14, 0,19, 0.00,60.00,Saturday
141,72544770.73306662
190,0.0
2,14, 1,14, 0,20, 0.00,60.00,Saturday
141,73043705.6717908
190,0.0
2,14, 1,14, 0,21, 0.00,60.00,Saturday
141,73111180.37986211
190,0.0
2,14, 1,14, 0,22, 0.00,60.00,Saturday
141,72976683.37714015
190,0.0
2,14, 1,14, 0,23, 0.00,60.00,Saturday
141,73037899.58629131
190,0.0
2,14, 1,14, 0,24, 0.00,60.00,Saturday
141,73335809.25145805
190,0.0
2,15, 1,15, 0, 1, 0.00,60.00,Sunday
141,72706596.05213435
190,0.0
2,15, 1,15, 0, 2, 0.00,60.00,Sunday
141,70548658.953724
190,0.0
2,15, 1,15, 0, 3, 0.00,60.00,Sunday
141,69577545.01556258
190,0.0
2,15, 1,15, 0, 4, 0.00,60.00,Sunday
141,68836556.01104912
190,0.0
2,15, 1,15, 0, 5, 0.00,60.00,Sunday
141,67222178.88955118
190,0.0
2,15, 1,15, 0, 6, 0.00,60.00,Sunday
141,65383096.37956059
190,0.0
2,15, 1,15, 0, 7, 0.00,60.00,Sunday
141,63444093.88442009
190,0.0
2,15, 1,15, 0, 8, 0.00,60.00,Sunday
141,61964158.2725921
190,0.0
2,15, 1,15, 0, 9, 0.00,60.00,Sunday
141,60661067.477920905
190,0.0
2,15, 1,15, 0,10, 0.00,60.00,Sunday
141,59997729.807283
190,0.0
2,15, 1,15, 0,11, 0.00,60.00,Sunday
141,60273184.257907405
190,0.0
2,15, 1,15, 0,12, 0.00,60.00,Sunday
141,61896956.96073603
190,0.0
2,15, 1,15, 0,13, 0.00,60.00,Sunday
141,62920465.15682204
190,0.0
2,15, 1,15, 0,14, 0.00,60.00,Sunday
141,63030950.35039398
190,0.0
2,15, 1,15, 0,15, 0.00,60.00,Sunday
141,62854547.66899904
190,0.0
2,15, 1,15, 0,16, 0.00,60.00,Sunday
141,61986296.61151697
190,0.0
2,15, 1,15, 0,17, 0.00,60.00,Sunday
141,61407104.45637488
190,0.0
2,15, 1,15, 0,18, 0.00,60.00,Sunday
141,61416668.516696595
190,0.0
2,15, 1,15, 0,19, 0.00,60.00,Sunday
141,61665584.56610799
190,0.0
2,15, 1,15, 0,20, 0.00,60.00,Sunday
141,62023576.225917056
190,0.0
2,15, 1,15, 0,21, 0.00,60.00,Sunday
141,62986261.25749292
190,0.0
2,15, 1,15, 0,22, 0.00,60.00,Sunday
141,63455334.572875954
190,0.0
2,15, 1,15, 0,23, 0.00,60.00,Sunday
141,63604019.05488758
190,0.0
2,15, 1,15, 0,24, 0.00,60.00,Sunday
141,64041931.3211441
190,0.0
2,16, 1,16, 0, 1, 0.00,60.00,Monday
141,65242234.39734985
190,0.0
2,16, 1,16, 0, 2, 0.00,60.00,Monday
141,66428634.44149931
190,0.0
2,16, 1,16, 0, 3, 0.00,60.00,Monday
141,67240225.5605002
190,0.0
2,16, 1,16, 0, 4, 0.00,60.00,Monday
141,67884827.09469098
190,0.0
2,16, 1,16, 0, 5, 0.00,60.00,Monday
141,68653813.2012011
190,0.0
2,16, 1,16, 0, 6, 0.00,60.00,Monday
141,69293536.65109304
190,0.0
2,16, 1,16, 0, 7, 0.00,60.00,Monday
141,70401662.31670764
190,0.0
2,16, 1,16, 0, 8, 0.00,60.00,Monday
141,71432981.08619961
190,0.0
2,16, 1,16, 0, 9, 0.00,60.00,Monday
141,71932260.60072337
190,0.0
2,16, 1,16, 0,10, 0.00,60.00,Monday
141,72052726.0975852
190,0.0
2,16, 1,16, 0,11, 0.00,60.00,Monday
141,70121496.67455965
190,0.0
2,16, 1,16, 0,12, 0.00,60.00,Monday
141,68394543.5453377
190,0.0
2,16, 1,16, 0,13, 0.00,60.00,Monday
141,66948582.73973565
190,0.0
2,16, 1,16, 0,14, 0.00,60.00,Monday
141,65851008.75091706
190,0.0
2,16, 1,16, 0,15, 0.00,60.00,Monday
141,65600629.72634135
190,0.0
2,16, 1,16, 0,16, 0.00,60.00,Monday
141,65953736.18822935
190,0.0
2,16, 1,16, 0,17, 0.00,60.00,Monday
141,66981692.73751866
190,0.0
2,16, 1,16, 0,18, 0.00,60.00,Monday
141,68961543.70015512
190,0.0
2,16, 1,16, 0,19, 0.00,60.00,Monday
141,71003896.90457961
190,0.0
2,16, 1,16, 0,20, 0.00,60.00,Monday
141,71997660.96602482
190,0.0
2,16, 1,16, 0,21, 0.00,60.00,Monday
141,72762538.0463355
190,0.0
2,16, 1,16, 0,22, 0.00,60.00,Monday
141,73458702.90889458
190,0.0
2,16, 1,16, 0,23, 0.00,60.00,Monday
141,74540951.04424188
190,0.0
2,16, 1,16, 0,24, 0.00,60.00,Monday
141,74755969.61926304
190,0.0
2,17, 1,17, 0, 1, 0.00,60.00,Tuesday
141,75120603.49232525
190,0.0
2,17, 1,17, 0, 2, 0.00,60.00,Tuesday
141,76641243.28728688
190,0.0
2,17, 1,17, 0, 3, 0.00,60.00,Tuesday
141,78065272.58641034
190,0.0
2,17, 1,17, 0, 4, 0.00,60.00,Tuesday
141,79379922.94592725
190,0.0
2,17, 1,17, 0, 5, 0.00,60.00,Tuesday
141,80811539.54046527
190,0.0
2,17, 1,17, 0, 6, 0.00,60.00,Tuesday
141,82239071.45221432
190,0.0
2,17, 1,17, 0, 7, 0.00,60.00,Tuesday
141,83221264.03538486
190,0.0
2,17, 1,17, 0, 8, 0.00,60.00,Tuesday
141,83899542.17780197
190,0.0
2,17, 1,17, 0, 9, 0.00,60.00,Tuesday
141,84304321.44158241
190,0.0
2,17, 1,17, 0,10, 0.00,60.00,Tuesday
141,82296827.22065935
190,0.0
2,17, 1,17, 0,11, 0.00,60.00,Tuesday
141,79167572.07711487
190,0.0
2,17, 1,17, 0,12, 0.00,60.00,Tuesday
141,76440564.1866981
190,0.0
2,17, 1,17, 0,13, 0.00,60.00,Tuesday
141,74753464.79467273
190,0.0
2,17, 1,17, 0,14, 0.00,60.00,Tuesday
141,74103173.08039463
190,0.0
2,17, 1,17, 0,15, 0.00,60.00,Tuesday
141,74032630.03073022
190,0.0
2,17, 1,17, 0,16, 0.00,60.00,Tuesday
141,74785634.9681916
190,0.0
2,17, 1,17, 0,17, 0.00,60.00,Tuesday
141,75054512.17491835
190,0.0
2,17, 1,17, 0,18, 0.00,60.00,Tuesday
141,74164309.55545452
190,0.0
2,17, 1,17, 0,19, 0.00,60.00,Tuesday
141,73198560.81442337
190,0.0
2,17, 1,17, 0,20, 0.00,60.00,Tuesday
141,72914768.53132042
190,0.0
2,17, 1,17, 0,21, 0.00,60.00,Tuesday
141,73096434.17870054
190,0.0
2,17, 1,17, 0,22, 0.00,60.00,Tuesday
141,73043212.49468799
190,0.0
2,17, 1,17, 0,23, 0.00,60.00,Tuesday
141,73119881.97108448
190,0.0
2,17, 1,17, 0,24, 0.00,60.00,Tuesday
141,73952453.90630606
190,0.0
2,18, 1,18, 0, 1, 0.00,60.00,Wednesday
141,74623453.61349171
190,0.0
2,18, 1,18, 0, 2, 0.00,60.00,Wednesday
141,75305031.3860231
190,0.0
2,18, 1,18, 0, 3, 0.00,60.00,Wednesday
141,75877224.68282558
190,0.0
2,18, 1,18, 0, 4, 0.00,60.00,Wednesday
141,76319437.849717
190,0.0
2,18, 1,18, 0, 5, 0.00,60.00,Wednesday
141,76831107.95900027
190,0.0
2,18, 1,18, 0, 6, 0.00,60.00,Wednesday
141,77419968.77202184
190,0.0
2,18, 1,18, 0, 7, 0.00,60.00,Wednesday
141,78915068.68968658
190,0.0
2,18, 1,18, 0, 8, 0.00,60.00,Wednesday
141,79526466.02088358
190,0.0
2,18, 1,18, 0, 9, 0.00,60.00,Wednesday
141,79924022.81527466
190,0.0
2,18, 1,18, 0,10, 0.00,60.00,Wednesday
141,80026021.92773347
190,0.0
2,18, 1,18, 0,11, 0.00,60.00,Wednesday
141,79035518.53540245
190,0.0
2,18, 1,18, 0,12, 0.00,60.00,Wednesday
141,78271672.79255594
190,0.0
2,18, 1,18, 0,13, 0.00,60.00,Wednesday
141,78718981.41986845
190,0.0
2,18, 1,18, 0,14, 0.00,60.00,Wednesday
141,79557156.39967358
190,0.0
2,18, 1,18, 0,15, 0.00,60.00,Wednesday
141,79928277.89190154
190,0.0
2,18, 1,18, 0,16, 0.00,60.00,Wednesday
141,80780982.93303703
190,0.0
2,18, 1,18, 0,17, 0.00,60.00,Wednesday
141,81129760.74045648
190,0.0
2,18, 1,18, 0,18, 0.00,60.00,Wednesday
141,80629593.93779632
190,0.0
2,18, 1,18, 0,19, 0.00,60.00,Wednesday
141,80384254.01454535
190,0.0
2,18, 1,18, 0,20, 0.00,60.00,Wednesday
141,80550483.7912274
190,0.0
2,18, 1,18, 0,21, 0.00,60.00,Wednesday
141,80693041.75340712
190,0.0
2,18, 1,18, 0,22, 0.00,60.00,Wednesday
141,81034237.73254864
190,0.0
2,18, 1,18, 0,23, 0.00,60.00,Wednesday
141,81280095.79167588
190,0.0
2,18, 1,18, 0,24, 0.00,60.00,Wednesday
141,81594343.39285606
190,0.0
2,19, 1,19, 0, 1, 0.00,60.00,Thursday
141,81227540.27836578
190,0.0
2,19, 1,19, 0, 2, 0.00,60.00,Thursday
141,81395531.43165493
190,0.0
2,19, 1,19, 0, 3, 0.00,60.00,Thursday
141,82399257.36733207
190,0.0
2,19, 1,19, 0, 4, 0.00,60.00,Thursday
141,82373547.07177192
190,0.0