Program Version,EnergyPlus, Version 24.2.0-94a887817b, YMD=2025.04.24 13:21
1,5,Environment Title[],Latitude[deg],Longitude[deg],Time Zone[],Elevation[m]
2,8,Day of Simulation[],Month[],Day of Month[],DST Indicator[1=yes 0=no],Hour[],StartMinute[],EndMinute[],DayType
3,5,Cumulative Day of Simulation[],Month[],Day of Month[],DST Indicator[1=yes 0=no],DayType  ! When Daily Report Variables Requested
4,2,Cumulative Days of Simulation[],Month[]  ! When Monthly Report Variables Requested
5,1,Cumulative Days of Simulation[] ! When Run Period Report Variables Requested
6,1,Calendar Year of Simulation[] ! When Annual Report Variables Requested
141,1,ZONE_0599100000630922 IDEAL LOADS AIR SYSTEM,Zone Ideal Loads Supply Air Total Heating Energy [J] !Hourly
190,1,ZONE_0599100000630922 IDEAL LOADS AIR SYSTEM,Zone Ideal Loads Supply Air Total Cooling Energy [J] !Hourly
End of Data Dictionary
1,RUN PERIOD 1,  51.96,   4.45,   1.00,  -4.50
2,1, 1, 1, 0, 1, 0.00,60.00,Sunday
141,58087343.6519761
190,0.0
2,1, 1, 1, 0, 2, 0.00,60.00,Sunday
141,60159564.87047368
190,0.0
2,1, 1, 1, 0, 3, 0.00,60.00,Sunday
141,60134551.39334963
190,0.0
2,1, 1, 1, 0, 4, 0.00,60.00,Sunday
141,61661790.20614579
190,0.0
2,1, 1, 1, 0, 5, 0.00,60.00,Sunday
141,62699068.24667599
190,0.0
2,1, 1, 1, 0, 6, 0.00,60.00,Sunday
141,62807184.62548105
190,0.0
2,1, 1, 1, 0, 7, 0.00,60.00,Sunday
141,62985474.34893636
190,0.0
2,1, 1, 1, 0, 8, 0.00,60.00,Sunday
141,62836434.42580223
190,0.0
2,1, 1, 1, 0, 9, 0.00,60.00,Sunday
141,62703333.1278953
190,0.0
2,1, 1, 1, 0,10, 0.00,60.00,Sunday
141,62199076.16097686
190,0.0
2,1, 1, 1, 0,11, 0.00,60.00,Sunday
141,60913048.59149468
190,0.0
2,1, 1, 1, 0,12, 0.00,60.00,Sunday
141,58837009.06000906
190,0.0
2,1, 1, 1, 0,13, 0.00,60.00,Sunday
141,57815968.242510326
190,0.0
2,1, 1, 1, 0,14, 0.00,60.00,Sunday
141,56410399.54388221
190,0.0
2,1, 1, 1, 0,15, 0.00,60.00,Sunday
141,55435933.996166915
190,0.0
2,1, 1, 1, 0,16, 0.00,60.00,Sunday
141,56389958.70364965
190,0.0
2,1, 1, 1, 0,17, 0.00,60.00,Sunday
141,57592316.70252748
190,0.0
2,1, 1, 1, 0,18, 0.00,60.00,Sunday
141,57978819.23219378
190,0.0
2,1, 1, 1, 0,19, 0.00,60.00,Sunday
141,58320085.77117737
190,0.0
2,1, 1, 1, 0,20, 0.00,60.00,Sunday
141,58262981.41462588
190,0.0
2,1, 1, 1, 0,21, 0.00,60.00,Sunday
141,58070459.48518092
190,0.0
2,1, 1, 1, 0,22, 0.00,60.00,Sunday
141,58204919.98546591
190,0.0
2,1, 1, 1, 0,23, 0.00,60.00,Sunday
141,56763781.3120765
190,0.0
2,1, 1, 1, 0,24, 0.00,60.00,Sunday
141,55691908.16783889
190,0.0
2,2, 1, 2, 0, 1, 0.00,60.00,Monday
141,55882222.70602305
190,0.0
2,2, 1, 2, 0, 2, 0.00,60.00,Monday
141,54425198.38683804
190,0.0
2,2, 1, 2, 0, 3, 0.00,60.00,Monday
141,53305630.19318103
190,0.0
2,2, 1, 2, 0, 4, 0.00,60.00,Monday
141,52172542.774385095
190,0.0
2,2, 1, 2, 0, 5, 0.00,60.00,Monday
141,49696845.54753726
190,0.0
2,2, 1, 2, 0, 6, 0.00,60.00,Monday
141,48521750.50260251
190,0.0
2,2, 1, 2, 0, 7, 0.00,60.00,Monday
141,46679017.40001241
190,0.0
2,2, 1, 2, 0, 8, 0.00,60.00,Monday
141,44436113.1428713
190,0.0
2,2, 1, 2, 0, 9, 0.00,60.00,Monday
141,45153656.96458017
190,0.0
2,2, 1, 2, 0,10, 0.00,60.00,Monday
141,46862640.32482356
190,0.0
2,2, 1, 2, 0,11, 0.00,60.00,Monday
141,48036518.93382605
190,0.0
2,2, 1, 2, 0,12, 0.00,60.00,Monday
141,47106869.144904666
190,0.0
2,2, 1, 2, 0,13, 0.00,60.00,Monday
141,46741908.28739939
190,0.0
2,2, 1, 2, 0,14, 0.00,60.00,Monday
141,47936357.558395885
190,0.0
2,2, 1, 2, 0,15, 0.00,60.00,Monday
141,48449124.653378725
190,0.0
2,2, 1, 2, 0,16, 0.00,60.00,Monday
141,49543364.569333255
190,0.0
2,2, 1, 2, 0,17, 0.00,60.00,Monday
141,50599674.67489377
190,0.0
2,2, 1, 2, 0,18, 0.00,60.00,Monday
141,50763469.40750079
190,0.0
2,2, 1, 2, 0,19, 0.00,60.00,Monday
141,51908250.41366564
190,0.0
2,2, 1, 2, 0,20, 0.00,60.00,Monday
141,52945514.64938095
190,0.0
2,2, 1, 2, 0,21, 0.00,60.00,Monday
141,53063534.44503773
190,0.0
2,2, 1, 2, 0,22, 0.00,60.00,Monday
141,52966797.211084366
190,0.0
2,2, 1, 2, 0,23, 0.00,60.00,Monday
141,52941604.872337155
190,0.0
2,2, 1, 2, 0,24, 0.00,60.00,Monday
141,52939286.41174512
190,0.0
2,3, 1, 3, 0, 1, 0.00,60.00,Tuesday
141,52976211.97163891
190,0.0
2,3, 1, 3, 0, 2, 0.00,60.00,Tuesday
141,52913310.08130473
190,0.0
2,3, 1, 3, 0, 3, 0.00,60.00,Tuesday
141,52818882.98991891
190,0.0
2,3, 1, 3, 0, 4, 0.00,60.00,Tuesday
141,52953275.56905484
190,0.0
2,3, 1, 3, 0, 5, 0.00,60.00,Tuesday
141,54291881.93835889
190,0.0
2,3, 1, 3, 0, 6, 0.00,60.00,Tuesday
141,55147731.31173365
190,0.0
2,3, 1, 3, 0, 7, 0.00,60.00,Tuesday
141,55544168.29417486
190,0.0
2,3, 1, 3, 0, 8, 0.00,60.00,Tuesday
141,55395628.7462562
190,0.0
2,3, 1, 3, 0, 9, 0.00,60.00,Tuesday
141,56497253.04931009
190,0.0
2,3, 1, 3, 0,10, 0.00,60.00,Tuesday
141,57020108.13401761
190,0.0
2,3, 1, 3, 0,11, 0.00,60.00,Tuesday
141,57142698.39981731
190,0.0
2,3, 1, 3, 0,12, 0.00,60.00,Tuesday
141,57471938.344343305
190,0.0
2,3, 1, 3, 0,13, 0.00,60.00,Tuesday
141,59190783.915159434
190,0.0
2,3, 1, 3, 0,14, 0.00,60.00,Tuesday
141,60131418.53719522
190,0.0
2,3, 1, 3, 0,15, 0.00,60.00,Tuesday
141,59916774.0877607
190,0.0
2,3, 1, 3, 0,16, 0.00,60.00,Tuesday
141,59723996.552894756
190,0.0
2,3, 1, 3, 0,17, 0.00,60.00,Tuesday
141,59778256.90356838
190,0.0
2,3, 1, 3, 0,18, 0.00,60.00,Tuesday
141,59917219.33120765
190,0.0
2,3, 1, 3, 0,19, 0.00,60.00,Tuesday
141,59638406.886933796
190,0.0
2,3, 1, 3, 0,20, 0.00,60.00,Tuesday
141,58279710.97266929
190,0.0
2,3, 1, 3, 0,21, 0.00,60.00,Tuesday
141,54609860.647162944
190,0.0
2,3, 1, 3, 0,22, 0.00,60.00,Tuesday
141,52641104.55072226
190,0.0
2,3, 1, 3, 0,23, 0.00,60.00,Tuesday
141,54043991.4774967
190,0.0
2,3, 1, 3, 0,24, 0.00,60.00,Tuesday
141,56438033.164977245
190,0.0
2,4, 1, 4, 0, 1, 0.00,60.00,Wednesday
141,57631765.01555291
190,0.0
2,4, 1, 4, 0, 2, 0.00,60.00,Wednesday
141,57444311.46050431
190,0.0
2,4, 1, 4, 0, 3, 0.00,60.00,Wednesday
141,57083380.584852815
190,0.0
2,4, 1, 4, 0, 4, 0.00,60.00,Wednesday
141,57486834.30367801
190,0.0
2,4, 1, 4, 0, 5, 0.00,60.00,Wednesday
141,59074836.978301615
190,0.0
2,4, 1, 4, 0, 6, 0.00,60.00,Wednesday
141,58653997.17585845
190,0.0
2,4, 1, 4, 0, 7, 0.00,60.00,Wednesday
141,58573288.74662102
190,0.0
2,4, 1, 4, 0, 8, 0.00,60.00,Wednesday
141,59206984.702751376
190,0.0
2,4, 1, 4, 0, 9, 0.00,60.00,Wednesday
141,59663604.260259375
190,0.0
2,4, 1, 4, 0,10, 0.00,60.00,Wednesday
141,60033191.79600269
190,0.0
2,4, 1, 4, 0,11, 0.00,60.00,Wednesday
141,57153153.428712964
190,0.0
2,4, 1, 4, 0,12, 0.00,60.00,Wednesday
141,52280051.304505706
190,0.0
2,4, 1, 4, 0,13, 0.00,60.00,Wednesday
141,50971253.17508592
190,0.0
2,4, 1, 4, 0,14, 0.00,60.00,Wednesday
141,50796272.38494222
190,0.0
2,4, 1, 4, 0,15, 0.00,60.00,Wednesday
141,50332450.88286282
190,0.0
2,4, 1, 4, 0,16, 0.00,60.00,Wednesday
141,52339709.16828518
190,0.0
2,4, 1, 4, 0,17, 0.00,60.00,Wednesday
141,55930086.330712125
190,0.0
2,4, 1, 4, 0,18, 0.00,60.00,Wednesday
141,59039378.645399585
190,0.0
2,4, 1, 4, 0,19, 0.00,60.00,Wednesday
141,62196508.59654719
190,0.0
2,4, 1, 4, 0,20, 0.00,60.00,Wednesday
141,63843027.32000512
190,0.0
2,4, 1, 4, 0,21, 0.00,60.00,Wednesday
141,64570368.412517756
190,0.0
2,4, 1, 4, 0,22, 0.00,60.00,Wednesday
141,66068058.32554148
190,0.0
2,4, 1, 4, 0,23, 0.00,60.00,Wednesday
141,65351914.04277605
190,0.0
2,4, 1, 4, 0,24, 0.00,60.00,Wednesday
141,64170487.87780055
190,0.0
2,5, 1, 5, 0, 1, 0.00,60.00,Thursday
141,64517938.47029995
190,0.0
2,5, 1, 5, 0, 2, 0.00,60.00,Thursday
141,63682309.711765096
190,0.0
2,5, 1, 5, 0, 3, 0.00,60.00,Thursday
141,62879333.337792955
190,0.0
2,5, 1, 5, 0, 4, 0.00,60.00,Thursday
141,62988916.620777614
190,0.0
2,5, 1, 5, 0, 5, 0.00,60.00,Thursday
141,62108262.1733641
190,0.0
2,5, 1, 5, 0, 6, 0.00,60.00,Thursday
141,61736976.94484248
190,0.0
2,5, 1, 5, 0, 7, 0.00,60.00,Thursday
141,62310591.526162714
190,0.0
2,5, 1, 5, 0, 8, 0.00,60.00,Thursday
141,62822870.891581774
190,0.0
2,5, 1, 5, 0, 9, 0.00,60.00,Thursday
141,63018451.48063871
190,0.0
2,5, 1, 5, 0,10, 0.00,60.00,Thursday
141,63979789.594210796
190,0.0
2,5, 1, 5, 0,11, 0.00,60.00,Thursday
141,63747613.26360805
190,0.0
2,5, 1, 5, 0,12, 0.00,60.00,Thursday
141,61673153.32786438
190,0.0
2,5, 1, 5, 0,13, 0.00,60.00,Thursday
141,60957085.18126975
190,0.0
2,5, 1, 5, 0,14, 0.00,60.00,Thursday
141,59473810.8120884
190,0.0
2,5, 1, 5, 0,15, 0.00,60.00,Thursday
141,58300351.8988112
190,0.0
2,5, 1, 5, 0,16, 0.00,60.00,Thursday
141,59291197.14469244
190,0.0
2,5, 1, 5, 0,17, 0.00,60.00,Thursday
141,59064334.89644326
190,0.0
2,5, 1, 5, 0,18, 0.00,60.00,Thursday
141,58432552.07590874
190,0.0
2,5, 1, 5, 0,19, 0.00,60.00,Thursday
141,58810849.95812063
190,0.0
2,5, 1, 5, 0,20, 0.00,60.00,Thursday
141,58753267.648252085
190,0.0
2,5, 1, 5, 0,21, 0.00,60.00,Thursday
141,58547394.7583285
190,0.0
2,5, 1, 5, 0,22, 0.00,60.00,Thursday
141,58606913.572335295
190,0.0
2,5, 1, 5, 0,23, 0.00,60.00,Thursday
141,58938897.077190556
190,0.0
2,5, 1, 5, 0,24, 0.00,60.00,Thursday
141,59298535.753407955
190,0.0
2,6, 1, 6, 0, 1, 0.00,60.00,Friday
141,59541335.49173167
190,0.0
2,6, 1, 6, 0, 2, 0.00,60.00,Friday
141,59773451.478250705
190,0.0
2,6, 1, 6, 0, 3, 0.00,60.00,Friday
141,61178111.64954315
190,0.0
2,6, 1, 6, 0, 4, 0.00,60.00,Friday
141,62538040.37769858
190,0.0
2,6, 1, 6, 0, 5, 0.00,60.00,Friday
141,63253286.61937347
190,0.0
2,6, 1, 6, 0, 6, 0.00,60.00,Friday
141,64120045.55864704
190,0.0
2,6, 1, 6, 0, 7, 0.00,60.00,Friday
141,65393492.28653547
190,0.0
2,6, 1, 6, 0, 8, 0.00,60.00,Friday
141,66595970.27685984
190,0.0
2,6, 1, 6, 0, 9, 0.00,60.00,Friday
141,68040919.79959017
190,0.0
2,6, 1, 6, 0,10, 0.00,60.00,Friday
141,68898425.08349052
190,0.0
2,6, 1, 6, 0,11, 0.00,60.00,Friday
141,67939950.12283012
190,0.0
2,6, 1, 6, 0,12, 0.00,60.00,Friday
141,66441312.47291011
190,0.0
2,6, 1, 6, 0,13, 0.00,60.00,Friday
141,65730976.48794219
190,0.0
2,6, 1, 6, 0,14, 0.00,60.00,Friday
141,65444583.537039414
190,0.0
2,6, 1, 6, 0,15, 0.00,60.00,Friday
141,65043045.49461161
190,0.0
2,6, 1, 6, 0,16, 0.00,60.00,Friday
141,64106348.78569448
190,0.0
2,6, 1, 6, 0,17, 0.00,60.00,Friday
141,63138464.05279733
190,0.0
2,6, 1, 6, 0,18, 0.00,60.00,Friday
141,62680027.58164793
190,0.0
2,6, 1, 6, 0,19, 0.00,60.00,Friday
141,62143612.506454855
190,0.0
2,6, 1, 6, 0,20, 0.00,60.00,Friday
141,60829778.24479689
190,0.0
2,6, 1, 6, 0,21, 0.00,60.00,Friday
141,57533101.24598963
190,0.0
2,6, 1, 6, 0,22, 0.00,60.00,Friday
141,53586253.79378934
190,0.0
2,6, 1, 6, 0,23, 0.00,60.00,Friday
141,51825715.431396246
190,0.0
2,6, 1, 6, 0,24, 0.00,60.00,Friday
141,52222152.19475973
190,0.0
2,7, 1, 7, 0, 1, 0.00,60.00,Saturday
141,55360340.55966546
190,0.0
2,7, 1, 7, 0, 2, 0.00,60.00,Saturday
141,58487853.30778278
190,0.0
2,7, 1, 7, 0, 3, 0.00,60.00,Saturday
141,58047565.88904024
190,0.0
2,7, 1, 7, 0, 4, 0.00,60.00,Saturday
141,58299730.28653138
190,0.0
2,7, 1, 7, 0, 5, 0.00,60.00,Saturday
141,60432761.83123391
190,0.0
2,7, 1, 7, 0, 6, 0.00,60.00,Saturday
141,62099698.878777325
190,0.0
2,7, 1, 7, 0, 7, 0.00,60.00,Saturday
141,63072828.80144247
190,0.0
2,7, 1, 7, 0, 8, 0.00,60.00,Saturday
141,63546663.50407654
190,0.0
2,7, 1, 7, 0, 9, 0.00,60.00,Saturday
141,62341061.95854913
190,0.0
2,7, 1, 7, 0,10, 0.00,60.00,Saturday
141,61258900.31297882
190,0.0
2,7, 1, 7, 0,11, 0.00,60.00,Saturday
141,58105923.44492771
190,0.0
2,7, 1, 7, 0,12, 0.00,60.00,Saturday
141,54931643.10504327
190,0.0
2,7, 1, 7, 0,13, 0.00,60.00,Saturday
141,52633758.28219542
190,0.0
2,7, 1, 7, 0,14, 0.00,60.00,Saturday
141,51495775.30549063
190,0.0
2,7, 1, 7, 0,15, 0.00,60.00,Saturday
141,52049311.59652827
190,0.0
2,7, 1, 7, 0,16, 0.00,60.00,Saturday
141,53173010.25640416
190,0.0
2,7, 1, 7, 0,17, 0.00,60.00,Saturday
141,54124074.50689163
190,0.0
2,7, 1, 7, 0,18, 0.00,60.00,Saturday
141,55725254.04423117
190,0.0
2,7, 1, 7, 0,19, 0.00,60.00,Saturday
141,57217078.95030007
190,0.0
2,7, 1, 7, 0,20, 0.00,60.00,Saturday
141,58644622.09069371
190,0.0
2,7, 1, 7, 0,21, 0.00,60.00,Saturday
141,59657480.489745416
190,0.0
2,7, 1, 7, 0,22, 0.00,60.00,Saturday
141,59702698.02408149
190,0.0
2,7, 1, 7, 0,23, 0.00,60.00,Saturday
141,59870743.03196681
190,0.0
2,7, 1, 7, 0,24, 0.00,60.00,Saturday
141,59756793.79503879
190,0.0
2,8, 1, 8, 0, 1, 0.00,60.00,Sunday
141,58789796.49324833
190,0.0
2,8, 1, 8, 0, 2, 0.00,60.00,Sunday
141,57660956.5943716
190,0.0
2,8, 1, 8, 0, 3, 0.00,60.00,Sunday
141,56635129.21028645
190,0.0
2,8, 1, 8, 0, 4, 0.00,60.00,Sunday
141,55184200.26119003
190,0.0
2,8, 1, 8, 0, 5, 0.00,60.00,Sunday
141,53429445.478618376
190,0.0
2,8, 1, 8, 0, 6, 0.00,60.00,Sunday
141,52108787.89228027
190,0.0
2,8, 1, 8, 0, 7, 0.00,60.00,Sunday
141,51099241.13169782
190,0.0
2,8, 1, 8, 0, 8, 0.00,60.00,Sunday
141,50234804.326062
190,0.0
2,8, 1, 8, 0, 9, 0.00,60.00,Sunday
141,49335675.59954319
190,0.0
2,8, 1, 8, 0,10, 0.00,60.00,Sunday
141,49042975.45817599
190,0.0
2,8, 1, 8, 0,11, 0.00,60.00,Sunday
141,48820645.07001313
190,0.0
2,8, 1, 8, 0,12, 0.00,60.00,Sunday
141,48999532.89856371
190,0.0
2,8, 1, 8, 0,13, 0.00,60.00,Sunday
141,48836854.963231675
190,0.0
2,8, 1, 8, 0,14, 0.00,60.00,Sunday
141,49050108.052149646
190,0.0
2,8, 1, 8, 0,15, 0.00,60.00,Sunday
141,50981227.47586301
190,0.0
2,8, 1, 8, 0,16, 0.00,60.00,Sunday
141,52373297.99959911
190,0.0
2,8, 1, 8, 0,17, 0.00,60.00,Sunday
141,52444274.97411662
190,0.0
2,8, 1, 8, 0,18, 0.00,60.00,Sunday
141,53058119.63745125
190,0.0
2,8, 1, 8, 0,19, 0.00,60.00,Sunday
141,52720838.29837368
190,0.0
2,8, 1, 8, 0,20, 0.00,60.00,Sunday
141,51549757.48288741
190,0.0
2,8, 1, 8, 0,21, 0.00,60.00,Sunday
141,50704365.72125601
190,0.0
2,8, 1, 8, 0,22, 0.00,60.00,Sunday
141,50933741.281217664
190,0.0
2,8, 1, 8, 0,23, 0.00,60.00,Sunday
141,51147923.59259765
190,0.0
2,8, 1, 8, 0,24, 0.00,60.00,Sunday
141,51829633.232631
190,0.0
2,9, 1, 9, 0, 1, 0.00,60.00,Monday
141,51952602.15824142
190,0.0
2,9, 1, 9, 0, 2, 0.00,60.00,Monday
141,52022858.4696717
190,0.0
2,9, 1, 9, 0, 3, 0.00,60.00,Monday
141,51845658.54173847
190,0.0
2,9, 1, 9, 0, 4, 0.00,60.00,Monday
141,51412792.97079299
190,0.0
2,9, 1, 9, 0, 5, 0.00,60.00,Monday
141,50452929.009260386
190,0.0
2,9, 1, 9, 0, 6, 0.00,60.00,Monday
141,49482688.56523079
190,0.0
2,9, 1, 9, 0, 7, 0.00,60.00,Monday
141,48781900.30055726
190,0.0
2,9, 1, 9, 0, 8, 0.00,60.00,Monday
141,48401111.23223989
190,0.0
2,9, 1, 9, 0, 9, 0.00,60.00,Monday
141,47362633.54579738
190,0.0
2,9, 1, 9, 0,10, 0.00,60.00,Monday
141,44840950.36029778
190,0.0
2,9, 1, 9, 0,11, 0.00,60.00,Monday
141,42693622.32308385
190,0.0
2,9, 1, 9, 0,12, 0.00,60.00,Monday
141,41507720.87297748
190,0.0
2,9, 1, 9, 0,13, 0.00,60.00,Monday
141,40531231.596515864
190,0.0
2,9, 1, 9, 0,14, 0.00,60.00,Monday
141,39823774.66601307
190,0.0
2,9, 1, 9, 0,15, 0.00,60.00,Monday
141,39587167.57004604
190,0.0
2,9, 1, 9, 0,16, 0.00,60.00,Monday
141,40105091.2240387
190,0.0
2,9, 1, 9, 0,17, 0.00,60.00,Monday
141,41828305.01966015
190,0.0
2,9, 1, 9, 0,18, 0.00,60.00,Monday
141,43453964.65765003
190,0.0
2,9, 1, 9, 0,19, 0.00,60.00,Monday
141,43331078.57952401
190,0.0
2,9, 1, 9, 0,20, 0.00,60.00,Monday
141,41076871.08489062
190,0.0
2,9, 1, 9, 0,21, 0.00,60.00,Monday
141,38797460.00839562
190,0.0
2,9, 1, 9, 0,22, 0.00,60.00,Monday
141,37400189.6352689
190,0.0
2,9, 1, 9, 0,23, 0.00,60.00,Monday
141,37140333.86196856
190,0.0
2,9, 1, 9, 0,24, 0.00,60.00,Monday
141,37284642.87299153
190,0.0
2,10, 1,10, 0, 1, 0.00,60.00,Tuesday
141,37913898.63570176
190,0.0
2,10, 1,10, 0, 2, 0.00,60.00,Tuesday
141,38345786.94606584
190,0.0
2,10, 1,10, 0, 3, 0.00,60.00,Tuesday
141,38426991.45016197
190,0.0
2,10, 1,10, 0, 4, 0.00,60.00,Tuesday
141,39135478.55286645
190,0.0
2,10, 1,10, 0, 5, 0.00,60.00,Tuesday
141,39403543.97946287
190,0.0
2,10, 1,10, 0, 6, 0.00,60.00,Tuesday
141,39500124.41013537
190,0.0
2,10, 1,10, 0, 7, 0.00,60.00,Tuesday
141,39613674.74287542
190,0.0
2,10, 1,10, 0, 8, 0.00,60.00,Tuesday
141,39389557.78722842
190,0.0
2,10, 1,10, 0, 9, 0.00,60.00,Tuesday
141,39059318.169420324
190,0.0
2,10, 1,10, 0,10, 0.00,60.00,Tuesday
141,38600847.938436836
190,0.0
2,10, 1,10, 0,11, 0.00,60.00,Tuesday
141,37919018.84281193
190,0.0
2,10, 1,10, 0,12, 0.00,60.00,Tuesday
141,37134365.993320644
190,0.0
2,10, 1,10, 0,13, 0.00,60.00,Tuesday
141,37024364.81512956
190,0.0
2,10, 1,10, 0,14, 0.00,60.00,Tuesday
141,39994776.355770186
190,0.0
2,10, 1,10, 0,15, 0.00,60.00,Tuesday
141,42398686.327680916
190,0.0
2,10, 1,10, 0,16, 0.00,60.00,Tuesday
141,43884639.964067705
190,0.0
2,10, 1,10, 0,17, 0.00,60.00,Tuesday
141,45411277.10043851
190,0.0
2,10, 1,10, 0,18, 0.00,60.00,Tuesday
141,47383299.16657918
190,0.0
2,10, 1,10, 0,19, 0.00,60.00,Tuesday
141,48427119.28762809
190,0.0
2,10, 1,10, 0,20, 0.00,60.00,Tuesday
141,49206792.736721024
190,0.0
2,10, 1,10, 0,21, 0.00,60.00,Tuesday
141,50437156.31612898
190,0.0
2,10, 1,10, 0,22, 0.00,60.00,Tuesday
141,51133269.92072401
190,0.0
2,10, 1,10, 0,23, 0.00,60.00,Tuesday
141,50680914.16487906
190,0.0
2,10, 1,10, 0,24, 0.00,60.00,Tuesday
141,51473302.68515297
190,0.0
2,11, 1,11, 0, 1, 0.00,60.00,Wednesday
141,51584995.08740397
190,0.0
2,11, 1,11, 0, 2, 0.00,60.00,Wednesday
141,51692080.81869717
190,0.0
2,11, 1,11, 0, 3, 0.00,60.00,Wednesday
141,52115171.43021451
190,0.0
2,11, 1,11, 0, 4, 0.00,60.00,Wednesday
141,51471082.9266647
190,0.0
2,11, 1,11, 0, 5, 0.00,60.00,Wednesday
141,51002821.436766714
190,0.0
2,11, 1,11, 0, 6, 0.00,60.00,Wednesday
141,50812059.85555911
190,0.0
2,11, 1,11, 0, 7, 0.00,60.00,Wednesday
141,50962092.00291979
190,0.0
2,11, 1,11, 0, 8, 0.00,60.00,Wednesday
141,51150275.1442188
190,0.0
2,11, 1,11, 0, 9, 0.00,60.00,Wednesday
141,51015667.92283687
190,0.0
2,11, 1,11, 0,10, 0.00,60.00,Wednesday
141,50660191.42044486
190,0.0
2,11, 1,11, 0,11, 0.00,60.00,Wednesday
141,50063796.805941485
190,0.0
2,11, 1,11, 0,12, 0.00,60.00,Wednesday
141,49088671.159051165
190,0.0
2,11, 1,11, 0,13, 0.00,60.00,Wednesday
141,48339560.61336263
190,0.0
2,11, 1,11, 0,14, 0.00,60.00,Wednesday
141,48028496.35990201
190,0.0
2,11, 1,11, 0,15, 0.00,60.00,Wednesday
141,47956662.09774138
190,0.0
2,11, 1,11, 0,16, 0.00,60.00,Wednesday
141,47995701.2979816
190,0.0
2,11, 1,11, 0,17, 0.00,60.00,Wednesday
141,47477453.616629556
190,0.0
2,11, 1,11, 0,18, 0.00,60.00,Wednesday
141,46980730.97092687
190,0.0
2,11, 1,11, 0,19, 0.00,60.00,Wednesday
141,46639082.50839612
190,0.0
2,11, 1,11, 0,20, 0.00,60.00,Wednesday
141,46609249.06960891
190,0.0
2,11, 1,11, 0,21, 0.00,60.00,Wednesday
141,46600192.38234766
190,0.0
2,11, 1,11, 0,22, 0.00,60.00,Wednesday
141,45542637.637960024
190,0.0
2,11, 1,11, 0,23, 0.00,60.00,Wednesday
141,44726526.565310344
190,0.0
2,11, 1,11, 0,24, 0.00,60.00,Wednesday
141,44792818.6186178
190,0.0
2,12, 1,12, 0, 1, 0.00,60.00,Thursday
141,45189704.03103994
190,0.0
2,12, 1,12, 0, 2, 0.00,60.00,Thursday
141,45250326.2630172
190,0.0
2,12, 1,12, 0, 3, 0.00,60.00,Thursday
141,45010424.181137025
190,0.0
2,12, 1,12, 0, 4, 0.00,60.00,Thursday
141,45056787.90079902
190,0.0
2,12, 1,12, 0, 5, 0.00,60.00,Thursday
141,45439242.5667807
190,0.0
2,12, 1,12, 0, 6, 0.00,60.00,Thursday
141,46327006.42955694
190,0.0
2,12, 1,12, 0, 7, 0.00,60.00,Thursday
141,46812000.27063909
190,0.0
2,12, 1,12, 0, 8, 0.00,60.00,Thursday
141,46938977.98214347
190,0.0
2,12, 1,12, 0, 9, 0.00,60.00,Thursday
141,46332197.86357918
190,0.0
2,12, 1,12, 0,10, 0.00,60.00,Thursday
141,44999762.72621086
190,0.0
2,12, 1,12, 0,11, 0.00,60.00,Thursday
141,43985793.22506551
190,0.0
2,12, 1,12, 0,12, 0.00,60.00,Thursday
141,43408256.363143615
190,0.0
2,12, 1,12, 0,13, 0.00,60.00,Thursday
141,42648391.31914255
190,0.0
2,12, 1,12, 0,14, 0.00,60.00,Thursday
141,41827032.65870559
190,0.0
2,12, 1,12, 0,15, 0.00,60.00,Thursday
141,41799688.243059516
190,0.0
2,12, 1,12, 0,16, 0.00,60.00,Thursday
141,42131400.815356284
190,0.0
2,12, 1,12, 0,17, 0.00,60.00,Thursday
141,43746771.19696668
190,0.0
2,12, 1,12, 0,18, 0.00,60.00,Thursday
141,44690468.562774196
190,0.0
2,12, 1,12, 0,19, 0.00,60.00,Thursday
141,44306479.462933466
190,0.0
2,12, 1,12, 0,20, 0.00,60.00,Thursday
141,43408976.01758416
190,0.0
2,12, 1,12, 0,21, 0.00,60.00,Thursday
141,43040854.43137585
190,0.0
2,12, 1,12, 0,22, 0.00,60.00,Thursday
141,42432540.64038623
190,0.0
2,12, 1,12, 0,23, 0.00,60.00,Thursday
141,42202798.39609278
190,0.0
2,12, 1,12, 0,24, 0.00,60.00,Thursday
141,42244672.50108837
190,0.0
2,13, 1,13, 0, 1, 0.00,60.00,Friday
141,41848358.35403355
190,0.0
2,13, 1,13, 0, 2, 0.00,60.00,Friday
141,41486039.82886903
190,0.0
2,13, 1,13, 0, 3, 0.00,60.00,Friday
141,40945734.02335887
190,0.0
2,13, 1,13, 0, 4, 0.00,60.00,Friday
141,40618847.07657413
190,0.0
2,13, 1,13, 0, 5, 0.00,60.00,Friday
141,40589486.13768764
190,0.0
2,13, 1,13, 0, 6, 0.00,60.00,Friday
141,40698989.766476795
190,0.0
2,13, 1,13, 0, 7, 0.00,60.00,Friday
141,41038797.45816252
190,0.0
2,13, 1,13, 0, 8, 0.00,60.00,Friday
141,41062415.91245867
190,0.0
2,13, 1,13, 0, 9, 0.00,60.00,Friday
141,40660813.68098021
190,0.0
2,13, 1,13, 0,10, 0.00,60.00,Friday
141,41668313.730523154
190,0.0
2,13, 1,13, 0,11, 0.00,60.00,Friday
141,42795367.74616511
190,0.0
2,13, 1,13, 0,12, 0.00,60.00,Friday
141,42866885.46855571
190,0.0
2,13, 1,13, 0,13, 0.00,60.00,Friday
141,42997773.056168966
190,0.0
2,13, 1,13, 0,14, 0.00,60.00,Friday
141,43685293.43172936
190,0.0
2,13, 1,13, 0,15, 0.00,60.00,Friday
141,44051387.630348995
190,0.0
2,13, 1,13, 0,16, 0.00,60.00,Friday
141,43893139.34160801
190,0.0
2,13, 1,13, 0,17, 0.00,60.00,Friday
141,43632022.08570917
190,0.0
2,13, 1,13, 0,18, 0.00,60.00,Friday
141,43496139.65837331
190,0.0
2,13, 1,13, 0,19, 0.00,60.00,Friday
141,44138529.210498534
190,0.0
2,13, 1,13, 0,20, 0.00,60.00,Friday
141,45296653.89778593
190,0.0
2,13, 1,13, 0,21, 0.00,60.00,Friday
141,46330501.31876214
190,0.0
2,13, 1,13, 0,22, 0.00,60.00,Friday
141,46978670.468865454
190,0.0
2,13, 1,13, 0,23, 0.00,60.00,Friday
141,46720722.60535351
190,0.0
2,13, 1,13, 0,24, 0.00,60.00,Friday
141,49448410.88441074
190,0.0
2,14, 1,14, 0, 1, 0.00,60.00,Saturday
141,51321728.76008649
190,0.0
2,14, 1,14, 0, 2, 0.00,60.00,Saturday
141,50523257.81942238
190,0.0
2,14, 1,14, 0, 3, 0.00,60.00,Saturday
141,50671804.43174963
190,0.0
2,14, 1,14, 0, 4, 0.00,60.00,Saturday
141,50365432.418339066
190,0.0
2,14, 1,14, 0, 5, 0.00,60.00,Saturday
141,50271517.17157857
190,0.0
2,14, 1,14, 0, 6, 0.00,60.00,Saturday
141,52258215.45619475
190,0.0
2,14, 1,14, 0, 7, 0.00,60.00,Saturday
141,53745087.8892819
190,0.0
2,14, 1,14, 0, 8, 0.00,60.00,Saturday
141,53234654.99948883
190,0.0
2,14, 1,14, 0, 9, 0.00,60.00,Saturday
141,54010005.701674774
190,0.0
2,14, 1,14, 0,10, 0.00,60.00,Saturday
141,55062678.98250353
190,0.0
2,14, 1,14, 0,11, 0.00,60.00,Saturday
141,54593526.3594694
190,0.0
2,14, 1,14, 0,12, 0.00,60.00,Saturday
141,53906551.597121716
190,0.0
2,14, 1,14, 0,13, 0.00,60.00,Saturday
141,52732328.65737286
190,0.0
2,14, 1,14, 0,14, 0.00,60.00,Saturday
141,50376741.331464306
190,0.0
2,14, 1,14, 0,15, 0.00,60.00,Saturday
141,50075552.83491402
190,0.0
2,14, 1,14, 0,16, 0.00,60.00,Saturday
141,50604881.91177653
190,0.0
2,14, 1,14, 0,17, 0.00,60.00,Saturday
141,51551495.87432696
190,0.0
2,14, 1,14, 0,18, 0.00,60.00,Saturday
141,53302432.479126126
190,0.0
2,14, 1,14, 0,19, 0.00,60.00,Saturday
141,53344273.19447589
190,0.0
2,14, 1,14, 0,20, 0.00,60.00,Saturday
141,53580786.03718023
190,0.0
2,14, 1,14, 0,21, 0.00,60.00,Saturday
141,53254929.45206221
190,0.0
2,14, 1,14, 0,22, 0.00,60.00,Saturday
141,52651904.054228164
190,0.0
2,14, 1,14, 0,23, 0.00,60.00,Saturday
141,52218046.45746711
190,0.0
2,14, 1,14, 0,24, 0.00,60.00,Saturday
141,52037304.72545396
190,0.0
2,15, 1,15, 0, 1, 0.00,60.00,Sunday
141,50986171.41555999
190,0.0
2,15, 1,15, 0, 2, 0.00,60.00,Sunday
141,48491573.99753338
190,0.0
2,15, 1,15, 0, 3, 0.00,60.00,Sunday
141,47286805.883175865
190,0.0
2,15, 1,15, 0, 4, 0.00,60.00,Sunday
141,46448557.85230228
190,0.0
2,15, 1,15, 0, 5, 0.00,60.00,Sunday
141,44894486.55998008
190,0.0
2,15, 1,15, 0, 6, 0.00,60.00,Sunday
141,43260749.169307664
190,0.0
2,15, 1,15, 0, 7, 0.00,60.00,Sunday
141,41652339.23502315
190,0.0
2,15, 1,15, 0, 8, 0.00,60.00,Sunday
141,40604407.445993535
190,0.0
2,15, 1,15, 0, 9, 0.00,60.00,Sunday
141,39822428.1328378
190,0.0
2,15, 1,15, 0,10, 0.00,60.00,Sunday
141,39753661.77677694
190,0.0
2,15, 1,15, 0,11, 0.00,60.00,Sunday
141,40680242.84672802
190,0.0
2,15, 1,15, 0,12, 0.00,60.00,Sunday
141,42990979.1498564
190,0.0
2,15, 1,15, 0,13, 0.00,60.00,Sunday
141,44711571.212816045
190,0.0
2,15, 1,15, 0,14, 0.00,60.00,Sunday
141,45451530.01084865
190,0.0
2,15, 1,15, 0,15, 0.00,60.00,Sunday
141,45771933.58867473
190,0.0
2,15, 1,15, 0,16, 0.00,60.00,Sunday
141,45261126.502851434
190,0.0
2,15, 1,15, 0,17, 0.00,60.00,Sunday
141,44919019.04105441
190,0.0
2,15, 1,15, 0,18, 0.00,60.00,Sunday
141,45095552.23786277
190,0.0
2,15, 1,15, 0,19, 0.00,60.00,Sunday
141,45501558.654167786
190,0.0
2,15, 1,15, 0,20, 0.00,60.00,Sunday
141,46011908.83892164
190,0.0
2,15, 1,15, 0,21, 0.00,60.00,Sunday
141,47067301.60006798
190,0.0
2,15, 1,15, 0,22, 0.00,60.00,Sunday
141,47543646.76688909
190,0.0
2,15, 1,15, 0,23, 0.00,60.00,Sunday
141,47604806.5277126
190,0.0
2,15, 1,15, 0,24, 0.00,60.00,Sunday
141,47866847.118920036
190,0.0
2,16, 1,16, 0, 1, 0.00,60.00,Monday
141,48815671.28043521
190,0.0
2,16, 1,16, 0, 2, 0.00,60.00,Monday
141,49701071.426770896
190,0.0
2,16, 1,16, 0, 3, 0.00,60.00,Monday
141,50192448.745348155
190,0.0
2,16, 1,16, 0, 4, 0.00,60.00,Monday
141,50546760.38770877
190,0.0
2,16, 1,16, 0, 5, 0.00,60.00,Monday
141,51083076.92447112
190,0.0
2,16, 1,16, 0, 6, 0.00,60.00,Monday
141,51541863.14455993
190,0.0
2,16, 1,16, 0, 7, 0.00,60.00,Monday
141,52498999.01451939
190,0.0
2,16, 1,16, 0, 8, 0.00,60.00,Monday
141,53397626.42994401
190,0.0
2,16, 1,16, 0, 9, 0.00,60.00,Monday
141,53772787.99505829
190,0.0
2,16, 1,16, 0,10, 0.00,60.00,Monday
141,53765463.97066505
190,0.0
2,16, 1,16, 0,11, 0.00,60.00,Monday
141,51712373.66428961
190,0.0
2,16, 1,16, 0,12, 0.00,60.00,Monday
141,49900143.10732975
190,0.0
2,16, 1,16, 0,13, 0.00,60.00,Monday
141,48495174.628731154
190,0.0
2,16, 1,16, 0,14, 0.00,60.00,Monday
141,47570528.507920615
190,0.0
2,16, 1,16, 0,15, 0.00,60.00,Monday
141,47485034.21444056
190,0.0
2,16, 1,16, 0,16, 0.00,60.00,Monday
141,47916548.4379423
190,0.0
2,16, 1,16, 0,17, 0.00,60.00,Monday
141,48942899.334995314
190,0.0
2,16, 1,16, 0,18, 0.00,60.00,Monday
141,50885443.52482294
190,0.0
2,16, 1,16, 0,19, 0.00,60.00,Monday
141,52922723.26907444
190,0.0
2,16, 1,16, 0,20, 0.00,60.00,Monday
141,53954678.13544247
190,0.0
2,16, 1,16, 0,21, 0.00,60.00,Monday
141,54766697.024021775
190,0.0
2,16, 1,16, 0,22, 0.00,60.00,Monday
141,55501037.146428116
190,0.0
2,16, 1,16, 0,23, 0.00,60.00,Monday
141,56610890.50151944
190,0.0
2,16, 1,16, 0,24, 0.00,60.00,Monday
141,56847449.37148188
190,0.0
2,17, 1,17, 0, 1, 0.00,60.00,Tuesday
141,57167161.511206724
190,0.0
2,17, 1,17, 0, 2, 0.00,60.00,Tuesday
141,58493244.15196966
190,0.0
2,17, 1,17, 0, 3, 0.00,60.00,Tuesday
141,59587896.000184
190,0.0
2,17, 1,17, 0, 4, 0.00,60.00,Tuesday
141,60511813.635019526
190,0.0
2,17, 1,17, 0, 5, 0.00,60.00,Tuesday
141,61544251.24364951
190,0.0
2,17, 1,17, 0, 6, 0.00,60.00,Tuesday
141,62581148.84357038
190,0.0
2,17, 1,17, 0, 7, 0.00,60.00,Tuesday
141,63181280.806475
190,0.0
2,17, 1,17, 0, 8, 0.00,60.00,Tuesday
141,63478330.61871747
190,0.0
2,17, 1,17, 0, 9, 0.00,60.00,Tuesday
141,63498119.58884947
190,0.0
2,17, 1,17, 0,10, 0.00,60.00,Tuesday
141,61116482.35125004
190,0.0
2,17, 1,17, 0,11, 0.00,60.00,Tuesday
141,57629812.7998591
190,0.0
2,17, 1,17, 0,12, 0.00,60.00,Tuesday
141,54626063.076462455
190,0.0
2,17, 1,17, 0,13, 0.00,60.00,Tuesday
141,52881051.38839336
190,0.0
2,17, 1,17, 0,14, 0.00,60.00,Tuesday
141,52519916.52897471
190,0.0
2,17, 1,17, 0,15, 0.00,60.00,Tuesday
141,53128211.84214461
190,0.0
2,17, 1,17, 0,16, 0.00,60.00,Tuesday
141,54871984.7012008
190,0.0
2,17, 1,17, 0,17, 0.00,60.00,Tuesday
141,56286022.86035666
190,0.0
2,17, 1,17, 0,18, 0.00,60.00,Tuesday
141,56511297.89436197
190,0.0
2,17, 1,17, 0,19, 0.00,60.00,Tuesday
141,56468866.65730117
190,0.0
2,17, 1,17, 0,20, 0.00,60.00,Tuesday
141,56833403.88238256
190,0.0
2,17, 1,17, 0,21, 0.00,60.00,Tuesday
141,57397514.319607005
190,0.0
2,17, 1,17, 0,22, 0.00,60.00,Tuesday
141,57516480.12990365
190,0.0
2,17, 1,17, 0,23, 0.00,60.00,Tuesday
141,57605759.297162645
190,0.0
2,17, 1,17, 0,24, 0.00,60.00,Tuesday
141,58330137.79163228
190,0.0
2,18, 1,18, 0, 1, 0.00,60.00,Wednesday
141,58780399.582955815
190,0.0
2,18, 1,18, 0, 2, 0.00,60.00,Wednesday
141,59094173.94129116
190,0.0
2,18, 1,18, 0, 3, 0.00,60.00,Wednesday
141,59172652.38059805
190,0.0
2,18, 1,18, 0, 4, 0.00,60.00,Wednesday
141,59083656.11816752
190,0.0
2,18, 1,18, 0, 5, 0.00,60.00,Wednesday
141,59098999.23949009
190,0.0
2,18, 1,18, 0, 6, 0.00,60.00,Wednesday
141,59255608.55956428
190,0.0
2,18, 1,18, 0, 7, 0.00,60.00,Wednesday
141,60381424.82775989
190,0.0
2,18, 1,18, 0, 8, 0.00,60.00,Wednesday
141,60691832.71891282
190,0.0
2,18, 1,18, 0, 9, 0.00,60.00,Wednesday
141,60843617.22787806
190,0.0
2,18, 1,18, 0,10, 0.00,60.00,Wednesday
141,60740807.96833562
190,0.0
2,18, 1,18, 0,11, 0.00,60.00,Wednesday
141,59588188.938816816
190,0.0
2,18, 1,18, 0,12, 0.00,60.00,Wednesday
141,58705672.142422214
190,0.0
2,18, 1,18, 0,13, 0.00,60.00,Wednesday
141,59092035.92135934
190,0.0
2,18, 1,18, 0,14, 0.00,60.00,Wednesday
141,59949045.92380601
190,0.0
2,18, 1,18, 0,15, 0.00,60.00,Wednesday
141,60420280.09747767
190,0.0
2,18, 1,18, 0,16, 0.00,60.00,Wednesday
141,61420730.0786899
190,0.0
2,18, 1,18, 0,17, 0.00,60.00,Wednesday
141,61932979.06458775
190,0.0
2,18, 1,18, 0,18, 0.00,60.00,Wednesday
141,61574853.08065269
190,0.0
2,18, 1,18, 0,19, 0.00,60.00,Wednesday
141,61408023.592266336
190,0.0
2,18, 1,18, 0,20, 0.00,60.00,Wednesday
141,61594441.26864401
190,0.0
2,18, 1,18, 0,21, 0.00,60.00,Wednesday
141,61729150.16693946
190,0.0
2,18, 1,18, 0,22, 0.00,60.00,Wednesday
141,62056095.415319994
190,0.0
2,18, 1,18, 0,23, 0.00,60.00,Wednesday
141,62294973.98454672
190,0.0
2,18, 1,18, 0,24, 0.00,60.00,Wednesday
141,62612176.536248825
190,0.0
2,19, 1,19, 0, 1, 0.00,60.00,Thursday
141,62261404.07224124
190,0.0
2,19, 1,19, 0, 2, 0.00,60.00,Thursday
141,62448512.05206115
190,0.0
2,19, 1,19, 0, 3, 0.00,60.00,Thursday
141,63467581.027503625
190,0.0