Program Version,EnergyPlus, Version 24.2.0-94a887817b, YMD=2025.04.24 13:21
1,5,Environment Title[],Latitude[deg],Longitude[deg],Time Zone[],Elevation[m]
2,8,Day of Simulation[],Month[],Day of Month[],DST Indicator[1=yes 0=no],Hour[],StartMinute[],EndMinute[],DayType
3,5,Cumulative Day of Simulation[],Month[],Day of Month[],DST Indicator[1=yes 0=no],DayType  ! When Daily Report Variables Requested
4,2,Cumulative Days of Simulation[],Month[]  ! When Monthly Report Variables Requested
5,1,Cumulative Days of Simulation[] ! When Run Period Report Variables Requested
6,1,Calendar Year of Simulation[] ! When Annual Report Variables Requested
141,1,ZONE_0599100000287086 IDEAL LOADS AIR SYSTEM,Zone Ideal Loads Supply Air Total Heating Energy [J] !Hourly
190,1,ZONE_0599100000287086 IDEAL LOADS AIR SYSTEM,Zone Ideal Loads Supply Air Total Cooling Energy [J] !Hourly
End of Data Dictionary
1,RUN PERIOD 1,  51.96,   4.45,   1.00,  -4.50
2,1, 1, 1, 0, 1, 0.00,60.00,Sunday
141,90018222.82255654
190,0.0
2,1, 1, 1, 0, 2, 0.00,60.00,Sunday
141,92541589.61841139
190,0.0
2,1, 1, 1, 0, 3, 0.00,60.00,Sunday
141,92618933.78383102
190,0.0
2,1, 1, 1, 0, 4, 0.00,60.00,Sunday
141,94524336.02165082
190,0.0
2,1, 1, 1, 0, 5, 0.00,60.00,Sunday
141,95914765.80041485
190,0.0
2,1, 1, 1, 0, 6, 0.00,60.00,Sunday
141,96283633.31759422
190,0.0
2,1, 1, 1, 0, 7, 0.00,60.00,Sunday
141,96786552.08279756
190,0.0
2,1, 1, 1, 0, 8, 0.00,60.00,Sunday
141,96956493.87394902
190,0.0
2,1, 1, 1, 0, 9, 0.00,60.00,Sunday
141,97180540.48617108
190,0.0
2,1, 1, 1, 0,10, 0.00,60.00,Sunday
141,96995522.31990035
190,0.0
2,1, 1, 1, 0,11, 0.00,60.00,Sunday
141,95905511.65234944
190,0.0
2,1, 1, 1, 0,12, 0.00,60.00,Sunday
141,93827670.69050105
190,0.0
2,1, 1, 1, 0,13, 0.00,60.00,Sunday
141,92788475.55696839
190,0.0
2,1, 1, 1, 0,14, 0.00,60.00,Sunday
141,91027746.55912857
190,0.0
2,1, 1, 1, 0,15, 0.00,60.00,Sunday
141,89464853.95275913
190,0.0
2,1, 1, 1, 0,16, 0.00,60.00,Sunday
141,89911913.33230004
190,0.0
2,1, 1, 1, 0,17, 0.00,60.00,Sunday
141,90565095.96002708
190,0.0
2,1, 1, 1, 0,18, 0.00,60.00,Sunday
141,90333527.15324523
190,0.0
2,1, 1, 1, 0,19, 0.00,60.00,Sunday
141,90203509.04335366
190,0.0
2,1, 1, 1, 0,20, 0.00,60.00,Sunday
141,89796566.52948727
190,0.0
2,1, 1, 1, 0,21, 0.00,60.00,Sunday
141,89398608.13385464
190,0.0
2,1, 1, 1, 0,22, 0.00,60.00,Sunday
141,89509644.00994842
190,0.0
2,1, 1, 1, 0,23, 0.00,60.00,Sunday
141,87880758.39599928
190,0.0
2,1, 1, 1, 0,24, 0.00,60.00,Sunday
141,86736934.47158192
190,0.0
2,2, 1, 2, 0, 1, 0.00,60.00,Monday
141,87081877.5435653
190,0.0
2,2, 1, 2, 0, 2, 0.00,60.00,Monday
141,85504152.08048807
190,0.0
2,2, 1, 2, 0, 3, 0.00,60.00,Monday
141,84290643.26304746
190,0.0
2,2, 1, 2, 0, 4, 0.00,60.00,Monday
141,83018385.11165267
190,0.0
2,2, 1, 2, 0, 5, 0.00,60.00,Monday
141,80125375.00544925
190,0.0
2,2, 1, 2, 0, 6, 0.00,60.00,Monday
141,78670609.53969592
190,0.0
2,2, 1, 2, 0, 7, 0.00,60.00,Monday
141,76355170.20263846
190,0.0
2,2, 1, 2, 0, 8, 0.00,60.00,Monday
141,73479392.18786219
190,0.0
2,2, 1, 2, 0, 9, 0.00,60.00,Monday
141,73945674.16472436
190,0.0
2,2, 1, 2, 0,10, 0.00,60.00,Monday
141,75475010.47609258
190,0.0
2,2, 1, 2, 0,11, 0.00,60.00,Monday
141,76308123.6446298
190,0.0
2,2, 1, 2, 0,12, 0.00,60.00,Monday
141,74678274.44862352
190,0.0
2,2, 1, 2, 0,13, 0.00,60.00,Monday
141,73825105.10872741
190,0.0
2,2, 1, 2, 0,14, 0.00,60.00,Monday
141,74984810.61279723
190,0.0
2,2, 1, 2, 0,15, 0.00,60.00,Monday
141,75522035.27326497
190,0.0
2,2, 1, 2, 0,16, 0.00,60.00,Monday
141,76855621.44690694
190,0.0
2,2, 1, 2, 0,17, 0.00,60.00,Monday
141,78250240.76961611
190,0.0
2,2, 1, 2, 0,18, 0.00,60.00,Monday
141,78701333.83566323
190,0.0
2,2, 1, 2, 0,19, 0.00,60.00,Monday
141,80371150.45904315
190,0.0
2,2, 1, 2, 0,20, 0.00,60.00,Monday
141,81980939.44310378
190,0.0
2,2, 1, 2, 0,21, 0.00,60.00,Monday
141,82570804.25281224
190,0.0
2,2, 1, 2, 0,22, 0.00,60.00,Monday
141,82953349.57484242
190,0.0
2,2, 1, 2, 0,23, 0.00,60.00,Monday
141,83458146.05617195
190,0.0
2,2, 1, 2, 0,24, 0.00,60.00,Monday
141,84002893.79564315
190,0.0
2,3, 1, 3, 0, 1, 0.00,60.00,Tuesday
141,84577372.21765232
190,0.0
2,3, 1, 3, 0, 2, 0.00,60.00,Tuesday
141,85007826.35544543
190,0.0
2,3, 1, 3, 0, 3, 0.00,60.00,Tuesday
141,85352396.6088348
190,0.0
2,3, 1, 3, 0, 4, 0.00,60.00,Tuesday
141,85861105.40772147
190,0.0
2,3, 1, 3, 0, 5, 0.00,60.00,Tuesday
141,87640936.20585617
190,0.0
2,3, 1, 3, 0, 6, 0.00,60.00,Tuesday
141,88738279.8234934
190,0.0
2,3, 1, 3, 0, 7, 0.00,60.00,Tuesday
141,89209143.18523651
190,0.0
2,3, 1, 3, 0, 8, 0.00,60.00,Tuesday
141,88987120.16992478
190,0.0
2,3, 1, 3, 0, 9, 0.00,60.00,Tuesday
141,90187820.38347746
190,0.0
2,3, 1, 3, 0,10, 0.00,60.00,Tuesday
141,90702106.67264578
190,0.0
2,3, 1, 3, 0,11, 0.00,60.00,Tuesday
141,90746585.0641144
190,0.0
2,3, 1, 3, 0,12, 0.00,60.00,Tuesday
141,91043045.55196992
190,0.0
2,3, 1, 3, 0,13, 0.00,60.00,Tuesday
141,93013982.80838698
190,0.0
2,3, 1, 3, 0,14, 0.00,60.00,Tuesday
141,94147673.73095292
190,0.0
2,3, 1, 3, 0,15, 0.00,60.00,Tuesday
141,93948475.53569585
190,0.0
2,3, 1, 3, 0,16, 0.00,60.00,Tuesday
141,93746999.09957314
190,0.0
2,3, 1, 3, 0,17, 0.00,60.00,Tuesday
141,93798009.09556612
190,0.0
2,3, 1, 3, 0,18, 0.00,60.00,Tuesday
141,93914573.57518564
190,0.0
2,3, 1, 3, 0,19, 0.00,60.00,Tuesday
141,93518415.15883897
190,0.0
2,3, 1, 3, 0,20, 0.00,60.00,Tuesday
141,91859896.20413418
190,0.0
2,3, 1, 3, 0,21, 0.00,60.00,Tuesday
141,87555487.7284326
190,0.0
2,3, 1, 3, 0,22, 0.00,60.00,Tuesday
141,85344373.08402085
190,0.0
2,3, 1, 3, 0,23, 0.00,60.00,Tuesday
141,87153251.95809166
190,0.0
2,3, 1, 3, 0,24, 0.00,60.00,Tuesday
141,90125224.51730253
190,0.0
2,4, 1, 4, 0, 1, 0.00,60.00,Wednesday
141,91674539.06395587
190,0.0
2,4, 1, 4, 0, 2, 0.00,60.00,Wednesday
141,91650596.52658151
190,0.0
2,4, 1, 4, 0, 3, 0.00,60.00,Wednesday
141,91507824.85604411
190,0.0
2,4, 1, 4, 0, 4, 0.00,60.00,Wednesday
141,92287056.1111621
190,0.0
2,4, 1, 4, 0, 5, 0.00,60.00,Wednesday
141,94409428.66089264
190,0.0
2,4, 1, 4, 0, 6, 0.00,60.00,Wednesday
141,94132460.5769013
190,0.0
2,4, 1, 4, 0, 7, 0.00,60.00,Wednesday
141,94182907.89386524
190,0.0
2,4, 1, 4, 0, 8, 0.00,60.00,Wednesday
141,95011459.8496788
190,0.0
2,4, 1, 4, 0, 9, 0.00,60.00,Wednesday
141,95597905.52751166
190,0.0
2,4, 1, 4, 0,10, 0.00,60.00,Wednesday
141,96066569.17547628
190,0.0
2,4, 1, 4, 0,11, 0.00,60.00,Wednesday
141,92794564.21408042
190,0.0
2,4, 1, 4, 0,12, 0.00,60.00,Wednesday
141,87301019.8414616
190,0.0
2,4, 1, 4, 0,13, 0.00,60.00,Wednesday
141,86011671.46415357
190,0.0
2,4, 1, 4, 0,14, 0.00,60.00,Wednesday
141,85988836.52304816
190,0.0
2,4, 1, 4, 0,15, 0.00,60.00,Wednesday
141,85497488.58058208
190,0.0
2,4, 1, 4, 0,16, 0.00,60.00,Wednesday
141,87753592.1261831
190,0.0
2,4, 1, 4, 0,17, 0.00,60.00,Wednesday
141,91772223.07473831
190,0.0
2,4, 1, 4, 0,18, 0.00,60.00,Wednesday
141,95208714.06522483
190,0.0
2,4, 1, 4, 0,19, 0.00,60.00,Wednesday
141,98745474.49095915
190,0.0
2,4, 1, 4, 0,20, 0.00,60.00,Wednesday
141,100643485.43105407
190,0.0
2,4, 1, 4, 0,21, 0.00,60.00,Wednesday
141,101643986.24005674
190,0.0
2,4, 1, 4, 0,22, 0.00,60.00,Wednesday
141,103721780.59631965
190,0.0
2,4, 1, 4, 0,23, 0.00,60.00,Wednesday
141,103385797.02775869
190,0.0
2,4, 1, 4, 0,24, 0.00,60.00,Wednesday
141,102633123.34838319
190,0.0
2,5, 1, 5, 0, 1, 0.00,60.00,Thursday
141,103724374.38762814
190,0.0
2,5, 1, 5, 0, 2, 0.00,60.00,Thursday
141,103436187.28712176
190,0.0
2,5, 1, 5, 0, 3, 0.00,60.00,Thursday
141,103118691.61633037
190,0.0
2,5, 1, 5, 0, 4, 0.00,60.00,Thursday
141,103750479.28810489
190,0.0
2,5, 1, 5, 0, 5, 0.00,60.00,Thursday
141,103096068.71695818
190,0.0
2,5, 1, 5, 0, 6, 0.00,60.00,Thursday
141,102899228.61633612
190,0.0
2,5, 1, 5, 0, 7, 0.00,60.00,Thursday
141,103675996.84878509
190,0.0
2,5, 1, 5, 0, 8, 0.00,60.00,Thursday
141,104277565.02885917
190,0.0
2,5, 1, 5, 0, 9, 0.00,60.00,Thursday
141,104426695.75353584
190,0.0
2,5, 1, 5, 0,10, 0.00,60.00,Thursday
141,105407010.85504432
190,0.0
2,5, 1, 5, 0,11, 0.00,60.00,Thursday
141,104965145.36178473
190,0.0
2,5, 1, 5, 0,12, 0.00,60.00,Thursday
141,102314484.60412946
190,0.0
2,5, 1, 5, 0,13, 0.00,60.00,Thursday
141,101089210.62661539
190,0.0
2,5, 1, 5, 0,14, 0.00,60.00,Thursday
141,98772479.457619
190,0.0
2,5, 1, 5, 0,15, 0.00,60.00,Thursday
141,96633184.63521631
190,0.0
2,5, 1, 5, 0,16, 0.00,60.00,Thursday
141,96899030.6355481
190,0.0
2,5, 1, 5, 0,17, 0.00,60.00,Thursday
141,95730564.50123642
190,0.0
2,5, 1, 5, 0,18, 0.00,60.00,Thursday
141,94155595.72041722
190,0.0
2,5, 1, 5, 0,19, 0.00,60.00,Thursday
141,93869039.6005573
190,0.0
2,5, 1, 5, 0,20, 0.00,60.00,Thursday
141,93199780.9258306
190,0.0
2,5, 1, 5, 0,21, 0.00,60.00,Thursday
141,92467041.7865435
190,0.0
2,5, 1, 5, 0,22, 0.00,60.00,Thursday
141,92135336.6997693
190,0.0
2,5, 1, 5, 0,23, 0.00,60.00,Thursday
141,92194874.69717546
190,0.0
2,5, 1, 5, 0,24, 0.00,60.00,Thursday
141,92343225.11743274
190,0.0
2,6, 1, 6, 0, 1, 0.00,60.00,Friday
141,92394235.57664625
190,0.0
2,6, 1, 6, 0, 2, 0.00,60.00,Friday
141,92458626.01637548
190,0.0
2,6, 1, 6, 0, 3, 0.00,60.00,Friday
141,93906877.9030178
190,0.0
2,6, 1, 6, 0, 4, 0.00,60.00,Friday
141,95327425.50132404
190,0.0
2,6, 1, 6, 0, 5, 0.00,60.00,Friday
141,96032391.33899362
190,0.0
2,6, 1, 6, 0, 6, 0.00,60.00,Friday
141,96959443.66952805
190,0.0
2,6, 1, 6, 0, 7, 0.00,60.00,Friday
141,98417852.2215949
190,0.0
2,6, 1, 6, 0, 8, 0.00,60.00,Friday
141,99861118.30240124
190,0.0
2,6, 1, 6, 0, 9, 0.00,60.00,Friday
141,101660262.36746804
190,0.0
2,6, 1, 6, 0,10, 0.00,60.00,Friday
141,102859443.95528756
190,0.0
2,6, 1, 6, 0,11, 0.00,60.00,Friday
141,102031085.89245996
190,0.0
2,6, 1, 6, 0,12, 0.00,60.00,Friday
141,100605280.58419466
190,0.0
2,6, 1, 6, 0,13, 0.00,60.00,Friday
141,100015902.69630454
190,0.0
2,6, 1, 6, 0,14, 0.00,60.00,Friday
141,99741830.70007077
190,0.0
2,6, 1, 6, 0,15, 0.00,60.00,Friday
141,99124248.30469817
190,0.0
2,6, 1, 6, 0,16, 0.00,60.00,Friday
141,97720730.132635
190,0.0
2,6, 1, 6, 0,17, 0.00,60.00,Friday
141,96226678.4495359
190,0.0
2,6, 1, 6, 0,18, 0.00,60.00,Friday
141,95383017.86292793
190,0.0
2,6, 1, 6, 0,19, 0.00,60.00,Friday
141,94569809.18146184
190,0.0
2,6, 1, 6, 0,20, 0.00,60.00,Friday
141,93023267.66243044
190,0.0
2,6, 1, 6, 0,21, 0.00,60.00,Friday
141,89370430.92421727
190,0.0
2,6, 1, 6, 0,22, 0.00,60.00,Friday
141,85069081.97597815
190,0.0
2,6, 1, 6, 0,23, 0.00,60.00,Friday
141,83290221.02210219
190,0.0
2,6, 1, 6, 0,24, 0.00,60.00,Friday
141,83923094.56121932
190,0.0
2,7, 1, 7, 0, 1, 0.00,60.00,Saturday
141,87629958.46837872
190,0.0
2,7, 1, 7, 0, 2, 0.00,60.00,Saturday
141,91238560.11629613
190,0.0
2,7, 1, 7, 0, 3, 0.00,60.00,Saturday
141,90664996.65921569
190,0.0
2,7, 1, 7, 0, 4, 0.00,60.00,Saturday
141,90901480.02599807
190,0.0
2,7, 1, 7, 0, 5, 0.00,60.00,Saturday
141,93346865.23453562
190,0.0
2,7, 1, 7, 0, 6, 0.00,60.00,Saturday
141,95274232.80894746
190,0.0
2,7, 1, 7, 0, 7, 0.00,60.00,Saturday
141,96424078.4796346
190,0.0
2,7, 1, 7, 0, 8, 0.00,60.00,Saturday
141,97039053.79638942
190,0.0
2,7, 1, 7, 0, 9, 0.00,60.00,Saturday
141,95763241.21230121
190,0.0
2,7, 1, 7, 0,10, 0.00,60.00,Saturday
141,94694966.47631948
190,0.0
2,7, 1, 7, 0,11, 0.00,60.00,Saturday
141,91261401.347276
190,0.0
2,7, 1, 7, 0,12, 0.00,60.00,Saturday
141,87726736.87007144
190,0.0
2,7, 1, 7, 0,13, 0.00,60.00,Saturday
141,84927772.04931445
190,0.0
2,7, 1, 7, 0,14, 0.00,60.00,Saturday
141,83050451.09135835
190,0.0
2,7, 1, 7, 0,15, 0.00,60.00,Saturday
141,82725726.97356339
190,0.0
2,7, 1, 7, 0,16, 0.00,60.00,Saturday
141,82798113.13753995
190,0.0
2,7, 1, 7, 0,17, 0.00,60.00,Saturday
141,82612210.58990502
190,0.0
2,7, 1, 7, 0,18, 0.00,60.00,Saturday
141,83311910.41689812
190,0.0
2,7, 1, 7, 0,19, 0.00,60.00,Saturday
141,84134341.34435621
190,0.0
2,7, 1, 7, 0,20, 0.00,60.00,Saturday
141,85171600.08354677
190,0.0
2,7, 1, 7, 0,21, 0.00,60.00,Saturday
141,86002129.13635425
190,0.0
2,7, 1, 7, 0,22, 0.00,60.00,Saturday
141,85940396.2619177
190,0.0
2,7, 1, 7, 0,23, 0.00,60.00,Saturday
141,86213015.23475625
190,0.0
2,7, 1, 7, 0,24, 0.00,60.00,Saturday
141,86342571.54380494
190,0.0
2,8, 1, 8, 0, 1, 0.00,60.00,Sunday
141,85688957.8456631
190,0.0
2,8, 1, 8, 0, 2, 0.00,60.00,Sunday
141,85017599.95421678
190,0.0
2,8, 1, 8, 0, 3, 0.00,60.00,Sunday
141,84555465.27565756
190,0.0
2,8, 1, 8, 0, 4, 0.00,60.00,Sunday
141,83599839.72124642
190,0.0
2,8, 1, 8, 0, 5, 0.00,60.00,Sunday
141,82201513.03942889
190,0.0
2,8, 1, 8, 0, 6, 0.00,60.00,Sunday
141,81156700.38844904
190,0.0
2,8, 1, 8, 0, 7, 0.00,60.00,Sunday
141,80303993.22404203
190,0.0
2,8, 1, 8, 0, 8, 0.00,60.00,Sunday
141,79458447.12525114
190,0.0
2,8, 1, 8, 0, 9, 0.00,60.00,Sunday
141,78427437.65199153
190,0.0
2,8, 1, 8, 0,10, 0.00,60.00,Sunday
141,77978170.00922896
190,0.0
2,8, 1, 8, 0,11, 0.00,60.00,Sunday
141,77510487.85231726
190,0.0
2,8, 1, 8, 0,12, 0.00,60.00,Sunday
141,77428081.55814692
190,0.0
2,8, 1, 8, 0,13, 0.00,60.00,Sunday
141,76890211.36440489
190,0.0
2,8, 1, 8, 0,14, 0.00,60.00,Sunday
141,76764842.21361312
190,0.0
2,8, 1, 8, 0,15, 0.00,60.00,Sunday
141,78659743.49221967
190,0.0
2,8, 1, 8, 0,16, 0.00,60.00,Sunday
141,79983179.79663432
190,0.0
2,8, 1, 8, 0,17, 0.00,60.00,Sunday
141,79848888.8570212
190,0.0
2,8, 1, 8, 0,18, 0.00,60.00,Sunday
141,80459779.93200624
190,0.0
2,8, 1, 8, 0,19, 0.00,60.00,Sunday
141,80086427.87319574
190,0.0
2,8, 1, 8, 0,20, 0.00,60.00,Sunday
141,78823222.25795987
190,0.0
2,8, 1, 8, 0,21, 0.00,60.00,Sunday
141,77980278.77718046
190,0.0
2,8, 1, 8, 0,22, 0.00,60.00,Sunday
141,78421008.14867721
190,0.0
2,8, 1, 8, 0,23, 0.00,60.00,Sunday
141,78856416.57391807
190,0.0
2,8, 1, 8, 0,24, 0.00,60.00,Sunday
141,79829520.43178245
190,0.0
2,9, 1, 9, 0, 1, 0.00,60.00,Monday
141,80149739.84649745
190,0.0
2,9, 1, 9, 0, 2, 0.00,60.00,Monday
141,80414985.31308186
190,0.0
2,9, 1, 9, 0, 3, 0.00,60.00,Monday
141,80404052.81875533
190,0.0
2,9, 1, 9, 0, 4, 0.00,60.00,Monday
141,80087644.17653233
190,0.0
2,9, 1, 9, 0, 5, 0.00,60.00,Monday
141,79121328.67234205
190,0.0
2,9, 1, 9, 0, 6, 0.00,60.00,Monday
141,78085586.07763395
190,0.0
2,9, 1, 9, 0, 7, 0.00,60.00,Monday
141,77298096.04961944
190,0.0
2,9, 1, 9, 0, 8, 0.00,60.00,Monday
141,76813380.76672286
190,0.0
2,9, 1, 9, 0, 9, 0.00,60.00,Monday
141,75500943.80081901
190,0.0
2,9, 1, 9, 0,10, 0.00,60.00,Monday
141,72422958.61440939
190,0.0
2,9, 1, 9, 0,11, 0.00,60.00,Monday
141,69770045.80158287
190,0.0
2,9, 1, 9, 0,12, 0.00,60.00,Monday
141,68209176.15082979
190,0.0
2,9, 1, 9, 0,13, 0.00,60.00,Monday
141,66818640.46980583
190,0.0
2,9, 1, 9, 0,14, 0.00,60.00,Monday
141,65644685.45855415
190,0.0
2,9, 1, 9, 0,15, 0.00,60.00,Monday
141,64942275.9769898
190,0.0
2,9, 1, 9, 0,16, 0.00,60.00,Monday
141,65087789.667594045
190,0.0
2,9, 1, 9, 0,17, 0.00,60.00,Monday
141,66656328.66617653
190,0.0
2,9, 1, 9, 0,18, 0.00,60.00,Monday
141,68170625.71209474
190,0.0
2,9, 1, 9, 0,19, 0.00,60.00,Monday
141,67729708.94667217
190,0.0
2,9, 1, 9, 0,20, 0.00,60.00,Monday
141,64877502.12870886
190,0.0
2,9, 1, 9, 0,21, 0.00,60.00,Monday
141,62017735.636956126
190,0.0
2,9, 1, 9, 0,22, 0.00,60.00,Monday
141,60153763.220284775
190,0.0
2,9, 1, 9, 0,23, 0.00,60.00,Monday
141,59535189.74391887
190,0.0
2,9, 1, 9, 0,24, 0.00,60.00,Monday
141,59288500.54342182
190,0.0
2,10, 1,10, 0, 1, 0.00,60.00,Tuesday
141,59517215.3424384
190,0.0
2,10, 1,10, 0, 2, 0.00,60.00,Tuesday
141,59468167.86279475
190,0.0
2,10, 1,10, 0, 3, 0.00,60.00,Tuesday
141,59003726.26529799
190,0.0
2,10, 1,10, 0, 4, 0.00,60.00,Tuesday
141,59282032.016677976
190,0.0
2,10, 1,10, 0, 5, 0.00,60.00,Tuesday
141,59074994.74922865
190,0.0
2,10, 1,10, 0, 6, 0.00,60.00,Tuesday
141,58710987.710337475
190,0.0
2,10, 1,10, 0, 7, 0.00,60.00,Tuesday
141,58423501.441303566
190,0.0
2,10, 1,10, 0, 8, 0.00,60.00,Tuesday
141,57801856.2087091
190,0.0
2,10, 1,10, 0, 9, 0.00,60.00,Tuesday
141,57108551.86480194
190,0.0
2,10, 1,10, 0,10, 0.00,60.00,Tuesday
141,56311021.45053272
190,0.0
2,10, 1,10, 0,11, 0.00,60.00,Tuesday
141,55291919.14991437
190,0.0
2,10, 1,10, 0,12, 0.00,60.00,Tuesday
141,54174698.816889584
190,0.0
2,10, 1,10, 0,13, 0.00,60.00,Tuesday
141,53845970.526983395
190,0.0
2,10, 1,10, 0,14, 0.00,60.00,Tuesday
141,57107013.05308366
190,0.0
2,10, 1,10, 0,15, 0.00,60.00,Tuesday
141,59759026.09965459
190,0.0
2,10, 1,10, 0,16, 0.00,60.00,Tuesday
141,61442255.29678075
190,0.0
2,10, 1,10, 0,17, 0.00,60.00,Tuesday
141,63320698.005429566
190,0.0
2,10, 1,10, 0,18, 0.00,60.00,Tuesday
141,65878232.6367375
190,0.0
2,10, 1,10, 0,19, 0.00,60.00,Tuesday
141,67568757.1550768
190,0.0
2,10, 1,10, 0,20, 0.00,60.00,Tuesday
141,69200215.15095559
190,0.0
2,10, 1,10, 0,21, 0.00,60.00,Tuesday
141,71594940.77050406
190,0.0
2,10, 1,10, 0,22, 0.00,60.00,Tuesday
141,73547148.93897189
190,0.0
2,10, 1,10, 0,23, 0.00,60.00,Tuesday
141,74281779.25341778
190,0.0
2,10, 1,10, 0,24, 0.00,60.00,Tuesday
141,76533508.51568808
190,0.0
2,11, 1,11, 0, 1, 0.00,60.00,Wednesday
141,78020888.21989064
190,0.0
2,11, 1,11, 0, 2, 0.00,60.00,Wednesday
141,79487093.56296858
190,0.0
2,11, 1,11, 0, 3, 0.00,60.00,Wednesday
141,81251831.8760225
190,0.0
2,11, 1,11, 0, 4, 0.00,60.00,Wednesday
141,81626180.36957914
190,0.0
2,11, 1,11, 0, 5, 0.00,60.00,Wednesday
141,82006633.384356
190,0.0
2,11, 1,11, 0, 6, 0.00,60.00,Wednesday
141,82516942.00199987
190,0.0
2,11, 1,11, 0, 7, 0.00,60.00,Wednesday
141,83255884.21238153
190,0.0
2,11, 1,11, 0, 8, 0.00,60.00,Wednesday
141,83899587.74327861
190,0.0
2,11, 1,11, 0, 9, 0.00,60.00,Wednesday
141,84060089.59347951
190,0.0
2,11, 1,11, 0,10, 0.00,60.00,Wednesday
141,83885672.66159572
190,0.0
2,11, 1,11, 0,11, 0.00,60.00,Wednesday
141,83364398.70189312
190,0.0
2,11, 1,11, 0,12, 0.00,60.00,Wednesday
141,82281372.67891534
190,0.0
2,11, 1,11, 0,13, 0.00,60.00,Wednesday
141,81236629.77026428
190,0.0
2,11, 1,11, 0,14, 0.00,60.00,Wednesday
141,80426956.30451152
190,0.0
2,11, 1,11, 0,15, 0.00,60.00,Wednesday
141,79652435.36519213
190,0.0
2,11, 1,11, 0,16, 0.00,60.00,Wednesday
141,78852509.81345047
190,0.0
2,11, 1,11, 0,17, 0.00,60.00,Wednesday
141,77372971.18503451
190,0.0
2,11, 1,11, 0,18, 0.00,60.00,Wednesday
141,76003038.37074552
190,0.0
2,11, 1,11, 0,19, 0.00,60.00,Wednesday
141,74972476.10725634
190,0.0
2,11, 1,11, 0,20, 0.00,60.00,Wednesday
141,74480159.12279983
190,0.0
2,11, 1,11, 0,21, 0.00,60.00,Wednesday
141,74162676.1173473
190,0.0
2,11, 1,11, 0,22, 0.00,60.00,Wednesday
141,72734610.35127187
190,0.0
2,11, 1,11, 0,23, 0.00,60.00,Wednesday
141,71656095.36124149
190,0.0
2,11, 1,11, 0,24, 0.00,60.00,Wednesday
141,71638146.38622802
190,0.0
2,12, 1,12, 0, 1, 0.00,60.00,Thursday
141,72010826.85739246
190,0.0
2,12, 1,12, 0, 2, 0.00,60.00,Thursday
141,71985354.78598231
190,0.0
2,12, 1,12, 0, 3, 0.00,60.00,Thursday
141,71608551.1345022
190,0.0
2,12, 1,12, 0, 4, 0.00,60.00,Thursday
141,71573105.51133324
190,0.0
2,12, 1,12, 0, 5, 0.00,60.00,Thursday
141,71939703.78178267
190,0.0
2,12, 1,12, 0, 6, 0.00,60.00,Thursday
141,72900961.29157993
190,0.0
2,12, 1,12, 0, 7, 0.00,60.00,Thursday
141,73398643.0724309
190,0.0
2,12, 1,12, 0, 8, 0.00,60.00,Thursday
141,73487281.17539567
190,0.0
2,12, 1,12, 0, 9, 0.00,60.00,Thursday
141,72735075.27803704
190,0.0
2,12, 1,12, 0,10, 0.00,60.00,Thursday
141,71151739.53060642
190,0.0
2,12, 1,12, 0,11, 0.00,60.00,Thursday
141,69945270.39155601
190,0.0
2,12, 1,12, 0,12, 0.00,60.00,Thursday
141,69260084.12443706
190,0.0
2,12, 1,12, 0,13, 0.00,60.00,Thursday
141,68408869.89679909
190,0.0
2,12, 1,12, 0,14, 0.00,60.00,Thursday
141,67536830.74893731
190,0.0
2,12, 1,12, 0,15, 0.00,60.00,Thursday
141,67613564.42901173
190,0.0
2,12, 1,12, 0,16, 0.00,60.00,Thursday
141,68105643.94796117
190,0.0
2,12, 1,12, 0,17, 0.00,60.00,Thursday
141,70068338.02683824
190,0.0
2,12, 1,12, 0,18, 0.00,60.00,Thursday
141,71224492.33024885
190,0.0
2,12, 1,12, 0,19, 0.00,60.00,Thursday
141,70821459.26266527
190,0.0
2,12, 1,12, 0,20, 0.00,60.00,Thursday
141,69814428.55673248
190,0.0
2,12, 1,12, 0,21, 0.00,60.00,Thursday
141,69404309.2262606
190,0.0
2,12, 1,12, 0,22, 0.00,60.00,Thursday
141,68665557.06519073
190,0.0
2,12, 1,12, 0,23, 0.00,60.00,Thursday
141,68294227.91263206
190,0.0
2,12, 1,12, 0,24, 0.00,60.00,Thursday
141,68169531.12647113
190,0.0
2,13, 1,13, 0, 1, 0.00,60.00,Friday
141,67478127.16722189
190,0.0
2,13, 1,13, 0, 2, 0.00,60.00,Friday
141,66785680.006956235
190,0.0
2,13, 1,13, 0, 3, 0.00,60.00,Friday
141,65860689.82634676
190,0.0
2,13, 1,13, 0, 4, 0.00,60.00,Friday
141,65167440.23664765
190,0.0
2,13, 1,13, 0, 5, 0.00,60.00,Friday
141,64810714.72768418
190,0.0
2,13, 1,13, 0, 6, 0.00,60.00,Friday
141,64614189.93079983
190,0.0
2,13, 1,13, 0, 7, 0.00,60.00,Friday
141,64715131.49171818
190,0.0
2,13, 1,13, 0, 8, 0.00,60.00,Friday
141,64486983.46948155
190,0.0
2,13, 1,13, 0, 9, 0.00,60.00,Friday
141,63785412.24916399
190,0.0
2,13, 1,13, 0,10, 0.00,60.00,Friday
141,64751089.92054427
190,0.0
2,13, 1,13, 0,11, 0.00,60.00,Friday
141,65907409.06063896
190,0.0
2,13, 1,13, 0,12, 0.00,60.00,Friday
141,65897310.96530588
190,0.0
2,13, 1,13, 0,13, 0.00,60.00,Friday
141,66028672.35017504
190,0.0
2,13, 1,13, 0,14, 0.00,60.00,Friday
141,66879378.38993724
190,0.0
2,13, 1,13, 0,15, 0.00,60.00,Friday
141,67420371.14656709
190,0.0
2,13, 1,13, 0,16, 0.00,60.00,Friday
141,67404256.86566056
190,0.0
2,13, 1,13, 0,17, 0.00,60.00,Friday
141,67277071.58839367
190,0.0
2,13, 1,13, 0,18, 0.00,60.00,Friday
141,67242562.51576865
190,0.0
2,13, 1,13, 0,19, 0.00,60.00,Friday
141,68055098.8071262
190,0.0
2,13, 1,13, 0,20, 0.00,60.00,Friday
141,69446665.80512185
190,0.0
2,13, 1,13, 0,21, 0.00,60.00,Friday
141,70749226.77475952
190,0.0
2,13, 1,13, 0,22, 0.00,60.00,Friday
141,71751695.19228928
190,0.0
2,13, 1,13, 0,23, 0.00,60.00,Friday
141,71873921.56721833
190,0.0
2,13, 1,13, 0,24, 0.00,60.00,Friday
141,75589995.38227613
190,0.0
2,14, 1,14, 0, 1, 0.00,60.00,Saturday
141,78362306.07918145
190,0.0
2,14, 1,14, 0, 2, 0.00,60.00,Saturday
141,78000566.80904423
190,0.0
2,14, 1,14, 0, 3, 0.00,60.00,Saturday
141,78675356.18097186
190,0.0
2,14, 1,14, 0, 4, 0.00,60.00,Saturday
141,78758602.35604244
190,0.0
2,14, 1,14, 0, 5, 0.00,60.00,Saturday
141,79038414.96853414
190,0.0
2,14, 1,14, 0, 6, 0.00,60.00,Saturday
141,81741676.52220559
190,0.0
2,14, 1,14, 0, 7, 0.00,60.00,Saturday
141,83946687.67533286
190,0.0
2,14, 1,14, 0, 8, 0.00,60.00,Saturday
141,83942418.35414699
190,0.0
2,14, 1,14, 0, 9, 0.00,60.00,Saturday
141,85536280.01937112
190,0.0
2,14, 1,14, 0,10, 0.00,60.00,Saturday
141,87509524.60199548
190,0.0
2,14, 1,14, 0,11, 0.00,60.00,Saturday
141,87678980.35516115
190,0.0
2,14, 1,14, 0,12, 0.00,60.00,Saturday
141,87481513.75550085
190,0.0
2,14, 1,14, 0,13, 0.00,60.00,Saturday
141,86552978.29710025
190,0.0
2,14, 1,14, 0,14, 0.00,60.00,Saturday
141,84055015.42164502
190,0.0
2,14, 1,14, 0,15, 0.00,60.00,Saturday
141,83737275.84069225
190,0.0
2,14, 1,14, 0,16, 0.00,60.00,Saturday
141,84185535.8966067
190,0.0
2,14, 1,14, 0,17, 0.00,60.00,Saturday
141,85027404.58085667
190,0.0
2,14, 1,14, 0,18, 0.00,60.00,Saturday
141,86940499.20948082
190,0.0
2,14, 1,14, 0,19, 0.00,60.00,Saturday
141,87116510.6287145
190,0.0
2,14, 1,14, 0,20, 0.00,60.00,Saturday
141,87746125.26614344
190,0.0
2,14, 1,14, 0,21, 0.00,60.00,Saturday
141,87882091.20716788
190,0.0
2,14, 1,14, 0,22, 0.00,60.00,Saturday
141,87786505.66581932
190,0.0
2,14, 1,14, 0,23, 0.00,60.00,Saturday
141,87915743.74233446
190,0.0
2,14, 1,14, 0,24, 0.00,60.00,Saturday
141,88314272.01017237
190,0.0
2,15, 1,15, 0, 1, 0.00,60.00,Sunday
141,87635473.7519155
190,0.0
2,15, 1,15, 0, 2, 0.00,60.00,Sunday
141,85181910.06191179
190,0.0
2,15, 1,15, 0, 3, 0.00,60.00,Sunday
141,84084933.61590028
190,0.0
2,15, 1,15, 0, 4, 0.00,60.00,Sunday
141,83236427.70556055
190,0.0
2,15, 1,15, 0, 5, 0.00,60.00,Sunday
141,81361539.94638984
190,0.0
2,15, 1,15, 0, 6, 0.00,60.00,Sunday
141,79212506.56109336
190,0.0
2,15, 1,15, 0, 7, 0.00,60.00,Sunday
141,76936510.80130336
190,0.0
2,15, 1,15, 0, 8, 0.00,60.00,Sunday
141,75181335.68305485
190,0.0
2,15, 1,15, 0, 9, 0.00,60.00,Sunday
141,73621966.16130798
190,0.0
2,15, 1,15, 0,10, 0.00,60.00,Sunday
141,72794080.83529563
190,0.0
2,15, 1,15, 0,11, 0.00,60.00,Sunday
141,73044339.5595071
190,0.0
2,15, 1,15, 0,12, 0.00,60.00,Sunday
141,74847643.00476778
190,0.0
2,15, 1,15, 0,13, 0.00,60.00,Sunday
141,75957784.188131
190,0.0
2,15, 1,15, 0,14, 0.00,60.00,Sunday
141,76022199.41884282
190,0.0
2,15, 1,15, 0,15, 0.00,60.00,Sunday
141,75770327.46318732
190,0.0
2,15, 1,15, 0,16, 0.00,60.00,Sunday
141,74734961.96415779
190,0.0
2,15, 1,15, 0,17, 0.00,60.00,Sunday
141,74045993.54996258
190,0.0
2,15, 1,15, 0,18, 0.00,60.00,Sunday
141,74043744.8191612
190,0.0
2,15, 1,15, 0,19, 0.00,60.00,Sunday
141,74317767.59309442
190,0.0
2,15, 1,15, 0,20, 0.00,60.00,Sunday
141,74716488.3429136
190,0.0
2,15, 1,15, 0,21, 0.00,60.00,Sunday
141,75818661.02740344
190,0.0
2,15, 1,15, 0,22, 0.00,60.00,Sunday
141,76360082.74539724
190,0.0
2,15, 1,15, 0,23, 0.00,60.00,Sunday
141,76541865.13465434
190,0.0
2,15, 1,15, 0,24, 0.00,60.00,Sunday
141,77066968.42354438
190,0.0
2,16, 1,16, 0, 1, 0.00,60.00,Monday
141,78480091.63709508
190,0.0
2,16, 1,16, 0, 2, 0.00,60.00,Monday
141,79882322.12575272
190,0.0
2,16, 1,16, 0, 3, 0.00,60.00,Monday
141,80853023.22135912
190,0.0
2,16, 1,16, 0, 4, 0.00,60.00,Monday
141,81624480.69764784
190,0.0
2,16, 1,16, 0, 5, 0.00,60.00,Monday
141,82528270.11984718
190,0.0
2,16, 1,16, 0, 6, 0.00,60.00,Monday
141,83271723.67300197
190,0.0
2,16, 1,16, 0, 7, 0.00,60.00,Monday
141,84547781.49823418
190,0.0
2,16, 1,16, 0, 8, 0.00,60.00,Monday
141,85729784.72676055
190,0.0
2,16, 1,16, 0, 9, 0.00,60.00,Monday
141,86294470.02687182
190,0.0
2,16, 1,16, 0,10, 0.00,60.00,Monday
141,86421185.18826082
190,0.0
2,16, 1,16, 0,11, 0.00,60.00,Monday
141,84176158.1801887
190,0.0
2,16, 1,16, 0,12, 0.00,60.00,Monday
141,82140824.41430998
190,0.0
2,16, 1,16, 0,13, 0.00,60.00,Monday
141,80372399.49464533
190,0.0
2,16, 1,16, 0,14, 0.00,60.00,Monday
141,78968468.4539557
190,0.0
2,16, 1,16, 0,15, 0.00,60.00,Monday
141,78570813.48235561
190,0.0
2,16, 1,16, 0,16, 0.00,60.00,Monday
141,78923239.54199222
190,0.0
2,16, 1,16, 0,17, 0.00,60.00,Monday
141,80102462.29622434
190,0.0
2,16, 1,16, 0,18, 0.00,60.00,Monday
141,82414930.4748682
190,0.0
2,16, 1,16, 0,19, 0.00,60.00,Monday
141,84819715.04128298
190,0.0
2,16, 1,16, 0,20, 0.00,60.00,Monday
141,86015194.9375004
190,0.0
2,16, 1,16, 0,21, 0.00,60.00,Monday
141,86937597.07407254
190,0.0
2,16, 1,16, 0,22, 0.00,60.00,Monday
141,87771011.1532684
190,0.0
2,16, 1,16, 0,23, 0.00,60.00,Monday
141,89043007.30593975
190,0.0
2,16, 1,16, 0,24, 0.00,60.00,Monday
141,89309358.17965357
190,0.0
2,17, 1,17, 0, 1, 0.00,60.00,Tuesday
141,89753403.56324723
190,0.0
2,17, 1,17, 0, 2, 0.00,60.00,Tuesday
141,91549182.75412977
190,0.0
2,17, 1,17, 0, 3, 0.00,60.00,Tuesday
141,93247803.6229856
190,0.0
2,17, 1,17, 0, 4, 0.00,60.00,Tuesday
141,94822190.16859698
190,0.0
2,17, 1,17, 0, 5, 0.00,60.00,Tuesday
141,96523406.43332532
190,0.0
2,17, 1,17, 0, 6, 0.00,60.00,Tuesday
141,98208921.01428197
190,0.0
2,17, 1,17, 0, 7, 0.00,60.00,Tuesday
141,99370393.36303163
190,0.0
2,17, 1,17, 0, 8, 0.00,60.00,Tuesday
141,100174218.06261772
190,0.0
2,17, 1,17, 0, 9, 0.00,60.00,Tuesday
141,100658630.94638284
190,0.0
2,17, 1,17, 0,10, 0.00,60.00,Tuesday
141,98355488.25880241
190,0.0
2,17, 1,17, 0,11, 0.00,60.00,Tuesday
141,94751133.89855462
190,0.0
2,17, 1,17, 0,12, 0.00,60.00,Tuesday
141,91570698.00827245
190,0.0
2,17, 1,17, 0,13, 0.00,60.00,Tuesday
141,89504469.08916031
190,0.0
2,17, 1,17, 0,14, 0.00,60.00,Tuesday
141,88550338.03617075
190,0.0
2,17, 1,17, 0,15, 0.00,60.00,Tuesday
141,88241958.4481534
190,0.0
2,17, 1,17, 0,16, 0.00,60.00,Tuesday
141,88932941.69480948
190,0.0
2,17, 1,17, 0,17, 0.00,60.00,Tuesday
141,89154425.10497364
190,0.0
2,17, 1,17, 0,18, 0.00,60.00,Tuesday
141,88120471.6322886
190,0.0
2,17, 1,17, 0,19, 0.00,60.00,Tuesday
141,87049002.22009961
190,0.0
2,17, 1,17, 0,20, 0.00,60.00,Tuesday
141,86781724.85057181
190,0.0
2,17, 1,17, 0,21, 0.00,60.00,Tuesday
141,87051707.20781861
190,0.0
2,17, 1,17, 0,22, 0.00,60.00,Tuesday
141,87043581.85215154
190,0.0
2,17, 1,17, 0,23, 0.00,60.00,Tuesday
141,87180086.25279202
190,0.0
2,17, 1,17, 0,24, 0.00,60.00,Tuesday
141,88185451.02759905
190,0.0
2,18, 1,18, 0, 1, 0.00,60.00,Wednesday
141,89006309.8237299
190,0.0
2,18, 1,18, 0, 2, 0.00,60.00,Wednesday
141,89852484.28291693
190,0.0
2,18, 1,18, 0, 3, 0.00,60.00,Wednesday
141,90586440.01152278
190,0.0
2,18, 1,18, 0, 4, 0.00,60.00,Wednesday
141,91172619.46136685
190,0.0
2,18, 1,18, 0, 5, 0.00,60.00,Wednesday
141,91830888.35640691
190,0.0
2,18, 1,18, 0, 6, 0.00,60.00,Wednesday
141,92566664.68046996
190,0.0
2,18, 1,18, 0, 7, 0.00,60.00,Wednesday
141,94338063.05301566
190,0.0
2,18, 1,18, 0, 8, 0.00,60.00,Wednesday
141,95079892.02920263
190,0.0
2,18, 1,18, 0, 9, 0.00,60.00,Wednesday
141,95568120.59226133
190,0.0
2,18, 1,18, 0,10, 0.00,60.00,Wednesday
141,95711047.03832084
190,0.0
2,18, 1,18, 0,11, 0.00,60.00,Wednesday
141,94589558.95617639
190,0.0
2,18, 1,18, 0,12, 0.00,60.00,Wednesday
141,93726053.27298844
190,0.0
2,18, 1,18, 0,13, 0.00,60.00,Wednesday
141,94256002.48218024
190,0.0
2,18, 1,18, 0,14, 0.00,60.00,Wednesday
141,95232968.14044574
190,0.0
2,18, 1,18, 0,15, 0.00,60.00,Wednesday
141,95668609.19158599
190,0.0
2,18, 1,18, 0,16, 0.00,60.00,Wednesday
141,96660973.82522582
190,0.0
2,18, 1,18, 0,17, 0.00,60.00,Wednesday
141,97073115.05393736
190,0.0
2,18, 1,18, 0,18, 0.00,60.00,Wednesday
141,96507588.63939807
190,0.0
2,18, 1,18, 0,19, 0.00,60.00,Wednesday
141,96240683.25952192
190,0.0
2,18, 1,18, 0,20, 0.00,60.00,Wednesday
141,96451600.16041401
190,0.0
2,18, 1,18, 0,21, 0.00,60.00,Wednesday
141,96634553.45493813
190,0.0
2,18, 1,18, 0,22, 0.00,60.00,Wednesday
141,97044250.69252579
190,0.0
2,18, 1,18, 0,23, 0.00,60.00,Wednesday
141,97340667.44834128
190,0.0
2,18, 1,18, 0,24, 0.00,60.00,Wednesday
141,97712831.76092231
190,0.0
2,19, 1,19, 0, 1, 0.00,60.00,Thursday
141,97296120.65925135
190,0.0
2,19, 1,19, 0, 2, 0.00,60.00,Thursday
141,97496066.91952768
190,0.0
2,19, 1,19, 0, 3, 0.00,60.00,Thursday
141,98660600.93711677
190,0.0
2,19, 1,19, 0, 4, 0.00,60.00,Thursday
141,98635869.98752117
190,0.0
2,19, 1,19, 0, 5, 0.00,60.00,Thursday