Program Version,EnergyPlus, Version 24.2.0-94a887817b, YMD=2025.04.24 13:20
1,5,Environment Title[],Latitude[deg],Longitude[deg],Time Zone[],Elevation[m]
2,8,Day of Simulation[],Month[],Day of Month[],DST Indicator[1=yes 0=no],Hour[],StartMinute[],EndMinute[],DayType
3,5,Cumulative Day of Simulation[],Month[],Day of Month[],DST Indicator[1=yes 0=no],DayType  ! When Daily Report Variables Requested
4,2,Cumulative Days of Simulation[],Month[]  ! When Monthly Report Variables Requested
5,1,Cumulative Days of Simulation[] ! When Run Period Report Variables Requested
6,1,Calendar Year of Simulation[] ! When Annual Report Variables Requested
141,1,ZONE_0599100000256246 IDEAL LOADS AIR SYSTEM,Zone Ideal Loads Supply Air Total Heating Energy [J] !Hourly
190,1,ZONE_0599100000256246 IDEAL LOADS AIR SYSTEM,Zone Ideal Loads Supply Air Total Cooling Energy [J] !Hourly
End of Data Dictionary
1,RUN PERIOD 1,  51.96,   4.45,   1.00,  -4.50
2,1, 1, 1, 0, 1, 0.00,60.00,Sunday
141,105490187.40454602
190,0.0
2,1, 1, 1, 0, 2, 0.00,60.00,Sunday
141,109533347.33836347
190,0.0
2,1, 1, 1, 0, 3, 0.00,60.00,Sunday
141,109429592.33961728
190,0.0
2,1, 1, 1, 0, 4, 0.00,60.00,Sunday
141,112408987.34202838
190,0.0
2,1, 1, 1, 0, 5, 0.00,60.00,Sunday
141,114428479.03505023
190,0.0
2,1, 1, 1, 0, 6, 0.00,60.00,Sunday
141,114619862.42000869
190,0.0
2,1, 1, 1, 0, 7, 0.00,60.00,Sunday
141,114964516.06113364
190,0.0
2,1, 1, 1, 0, 8, 0.00,60.00,Sunday
141,114679331.12353991
190,0.0
2,1, 1, 1, 0, 9, 0.00,60.00,Sunday
141,114444237.45278004
190,0.0
2,1, 1, 1, 0,10, 0.00,60.00,Sunday
141,113488143.61283734
190,0.0
2,1, 1, 1, 0,11, 0.00,60.00,Sunday
141,110995525.42809452
190,0.0
2,1, 1, 1, 0,12, 0.00,60.00,Sunday
141,106947651.6257745
190,0.0
2,1, 1, 1, 0,13, 0.00,60.00,Sunday
141,104995510.28893264
190,0.0
2,1, 1, 1, 0,14, 0.00,60.00,Sunday
141,102282669.51570274
190,0.0
2,1, 1, 1, 0,15, 0.00,60.00,Sunday
141,100413666.93677992
190,0.0
2,1, 1, 1, 0,16, 0.00,60.00,Sunday
141,102341333.38971052
190,0.0
2,1, 1, 1, 0,17, 0.00,60.00,Sunday
141,104729847.8730287
190,0.0
2,1, 1, 1, 0,18, 0.00,60.00,Sunday
141,105467369.82975723
190,0.0
2,1, 1, 1, 0,19, 0.00,60.00,Sunday
141,106082204.1910769
190,0.0
2,1, 1, 1, 0,20, 0.00,60.00,Sunday
141,105884060.21651101
190,0.0
2,1, 1, 1, 0,21, 0.00,60.00,Sunday
141,105405004.64342666
190,0.0
2,1, 1, 1, 0,22, 0.00,60.00,Sunday
141,105571177.55672775
190,0.0
2,1, 1, 1, 0,23, 0.00,60.00,Sunday
141,102621273.73344873
190,0.0
2,1, 1, 1, 0,24, 0.00,60.00,Sunday
141,100411373.03853127
190,0.0
2,2, 1, 2, 0, 1, 0.00,60.00,Monday
141,100713069.98631737
190,0.0
2,2, 1, 2, 0, 2, 0.00,60.00,Monday
141,97761097.33384675
190,0.0
2,2, 1, 2, 0, 3, 0.00,60.00,Monday
141,95488064.56478888
190,0.0
2,2, 1, 2, 0, 4, 0.00,60.00,Monday
141,93195251.91473228
190,0.0
2,2, 1, 2, 0, 5, 0.00,60.00,Monday
141,88246869.66741651
190,0.0
2,2, 1, 2, 0, 6, 0.00,60.00,Monday
141,85878662.68962772
190,0.0
2,2, 1, 2, 0, 7, 0.00,60.00,Monday
141,82184953.71259369
190,0.0
2,2, 1, 2, 0, 8, 0.00,60.00,Monday
141,77693994.02957255
190,0.0
2,2, 1, 2, 0, 9, 0.00,60.00,Monday
141,79061221.53618531
190,0.0
2,2, 1, 2, 0,10, 0.00,60.00,Monday
141,82384340.05506185
190,0.0
2,2, 1, 2, 0,11, 0.00,60.00,Monday
141,84636851.18433876
190,0.0
2,2, 1, 2, 0,12, 0.00,60.00,Monday
141,82708258.5612675
190,0.0
2,2, 1, 2, 0,13, 0.00,60.00,Monday
141,81886640.21275282
190,0.0
2,2, 1, 2, 0,14, 0.00,60.00,Monday
141,84149925.74116953
190,0.0
2,2, 1, 2, 0,15, 0.00,60.00,Monday
141,85061374.27965479
190,0.0
2,2, 1, 2, 0,16, 0.00,60.00,Monday
141,87129222.82530208
190,0.0
2,2, 1, 2, 0,17, 0.00,60.00,Monday
141,89133643.01019377
190,0.0
2,2, 1, 2, 0,18, 0.00,60.00,Monday
141,89383450.86114524
190,0.0
2,2, 1, 2, 0,19, 0.00,60.00,Monday
141,91592571.66390999
190,0.0
2,2, 1, 2, 0,20, 0.00,60.00,Monday
141,93610297.71167322
190,0.0
2,2, 1, 2, 0,21, 0.00,60.00,Monday
141,93824973.96296455
190,0.0
2,2, 1, 2, 0,22, 0.00,60.00,Monday
141,93630460.21473527
190,0.0
2,2, 1, 2, 0,23, 0.00,60.00,Monday
141,93597425.3054952
190,0.0
2,2, 1, 2, 0,24, 0.00,60.00,Monday
141,93626268.01452053
190,0.0
2,3, 1, 3, 0, 1, 0.00,60.00,Tuesday
141,93746312.20312431
190,0.0
2,3, 1, 3, 0, 2, 0.00,60.00,Tuesday
141,93683473.30303976
190,0.0
2,3, 1, 3, 0, 3, 0.00,60.00,Tuesday
141,93569708.20246229
190,0.0
2,3, 1, 3, 0, 4, 0.00,60.00,Tuesday
141,93916299.61546361
190,0.0
2,3, 1, 3, 0, 5, 0.00,60.00,Tuesday
141,96657814.28840128
190,0.0
2,3, 1, 3, 0, 6, 0.00,60.00,Tuesday
141,98448179.89841577
190,0.0
2,3, 1, 3, 0, 7, 0.00,60.00,Tuesday
141,99330309.01002906
190,0.0
2,3, 1, 3, 0, 8, 0.00,60.00,Tuesday
141,99135107.14371324
190,0.0
2,3, 1, 3, 0, 9, 0.00,60.00,Tuesday
141,101417456.07207038
190,0.0
2,3, 1, 3, 0,10, 0.00,60.00,Tuesday
141,102547770.09821913
190,0.0
2,3, 1, 3, 0,11, 0.00,60.00,Tuesday
141,102879515.28566192
190,0.0
2,3, 1, 3, 0,12, 0.00,60.00,Tuesday
141,103613153.15157206
190,0.0
2,3, 1, 3, 0,13, 0.00,60.00,Tuesday
141,107091117.63770859
190,0.0
2,3, 1, 3, 0,14, 0.00,60.00,Tuesday
141,109017219.47737905
190,0.0
2,3, 1, 3, 0,15, 0.00,60.00,Tuesday
141,108643520.05160815
190,0.0
2,3, 1, 3, 0,16, 0.00,60.00,Tuesday
141,108302369.66470343
190,0.0
2,3, 1, 3, 0,17, 0.00,60.00,Tuesday
141,108440801.6967903
190,0.0
2,3, 1, 3, 0,18, 0.00,60.00,Tuesday
141,108737306.94639467
190,0.0
2,3, 1, 3, 0,19, 0.00,60.00,Tuesday
141,108196650.54877388
190,0.0
2,3, 1, 3, 0,20, 0.00,60.00,Tuesday
141,105509877.07464327
190,0.0
2,3, 1, 3, 0,21, 0.00,60.00,Tuesday
141,98238877.41922316
190,0.0
2,3, 1, 3, 0,22, 0.00,60.00,Tuesday
141,94338267.1433203
190,0.0
2,3, 1, 3, 0,23, 0.00,60.00,Tuesday
141,97123265.0432722
190,0.0
2,3, 1, 3, 0,24, 0.00,60.00,Tuesday
141,101875860.16774723
190,0.0
2,4, 1, 4, 0, 1, 0.00,60.00,Wednesday
141,104249983.74822168
190,0.0
2,4, 1, 4, 0, 2, 0.00,60.00,Wednesday
141,103887888.18849182
190,0.0
2,4, 1, 4, 0, 3, 0.00,60.00,Wednesday
141,103181906.29028349
190,0.0
2,4, 1, 4, 0, 4, 0.00,60.00,Wednesday
141,103990512.9901444
190,0.0
2,4, 1, 4, 0, 5, 0.00,60.00,Wednesday
141,107152953.0985492
190,0.0
2,4, 1, 4, 0, 6, 0.00,60.00,Wednesday
141,106342485.57302764
190,0.0
2,4, 1, 4, 0, 7, 0.00,60.00,Wednesday
141,106215383.40383154
190,0.0
2,4, 1, 4, 0, 8, 0.00,60.00,Wednesday
141,107517518.69377457
190,0.0
2,4, 1, 4, 0, 9, 0.00,60.00,Wednesday
141,108480095.55662134
190,0.0
2,4, 1, 4, 0,10, 0.00,60.00,Wednesday
141,109272037.79484132
190,0.0
2,4, 1, 4, 0,11, 0.00,60.00,Wednesday
141,103628143.33759294
190,0.0
2,4, 1, 4, 0,12, 0.00,60.00,Wednesday
141,94037040.4959892
190,0.0
2,4, 1, 4, 0,13, 0.00,60.00,Wednesday
141,91508685.40389678
190,0.0
2,4, 1, 4, 0,14, 0.00,60.00,Wednesday
141,91224292.9708961
190,0.0
2,4, 1, 4, 0,15, 0.00,60.00,Wednesday
141,90356453.7695058
190,0.0
2,4, 1, 4, 0,16, 0.00,60.00,Wednesday
141,94364115.5224021
190,0.0
2,4, 1, 4, 0,17, 0.00,60.00,Wednesday
141,101495296.77063519
190,0.0
2,4, 1, 4, 0,18, 0.00,60.00,Wednesday
141,107654156.78404075
190,0.0
2,4, 1, 4, 0,19, 0.00,60.00,Wednesday
141,113887257.79970294
190,0.0
2,4, 1, 4, 0,20, 0.00,60.00,Wednesday
141,117113047.68276162
190,0.0
2,4, 1, 4, 0,21, 0.00,60.00,Wednesday
141,118507926.74650156
190,0.0
2,4, 1, 4, 0,22, 0.00,60.00,Wednesday
141,121424338.68708546
190,0.0
2,4, 1, 4, 0,23, 0.00,60.00,Wednesday
141,119958178.0477717
190,0.0
2,4, 1, 4, 0,24, 0.00,60.00,Wednesday
141,117580119.33745772
190,0.0
2,5, 1, 5, 0, 1, 0.00,60.00,Thursday
141,118244351.65545115
190,0.0
2,5, 1, 5, 0, 2, 0.00,60.00,Thursday
141,116581987.86864862
190,0.0
2,5, 1, 5, 0, 3, 0.00,60.00,Thursday
141,115001786.26919502
190,0.0
2,5, 1, 5, 0, 4, 0.00,60.00,Thursday
141,115243348.4406913
190,0.0
2,5, 1, 5, 0, 5, 0.00,60.00,Thursday
141,113538987.41366866
190,0.0
2,5, 1, 5, 0, 6, 0.00,60.00,Thursday
141,112859323.8147492
190,0.0
2,5, 1, 5, 0, 7, 0.00,60.00,Thursday
141,114058421.61904056
190,0.0
2,5, 1, 5, 0, 8, 0.00,60.00,Thursday
141,115142148.4256998
190,0.0
2,5, 1, 5, 0, 9, 0.00,60.00,Thursday
141,115598726.7946206
190,0.0
2,5, 1, 5, 0,10, 0.00,60.00,Thursday
141,117566662.91094285
190,0.0
2,5, 1, 5, 0,11, 0.00,60.00,Thursday
141,117162607.33488578
190,0.0
2,5, 1, 5, 0,12, 0.00,60.00,Thursday
141,113097077.8423129
190,0.0
2,5, 1, 5, 0,13, 0.00,60.00,Thursday
141,111709745.2962277
190,0.0
2,5, 1, 5, 0,14, 0.00,60.00,Thursday
141,108791279.09038009
190,0.0
2,5, 1, 5, 0,15, 0.00,60.00,Thursday
141,106469728.7110768
190,0.0
2,5, 1, 5, 0,16, 0.00,60.00,Thursday
141,108414210.59674014
190,0.0
2,5, 1, 5, 0,17, 0.00,60.00,Thursday
141,107917976.44866394
190,0.0
2,5, 1, 5, 0,18, 0.00,60.00,Thursday
141,106589412.0764705
190,0.0
2,5, 1, 5, 0,19, 0.00,60.00,Thursday
141,107232894.9918328
190,0.0
2,5, 1, 5, 0,20, 0.00,60.00,Thursday
141,106992256.93408222
190,0.0
2,5, 1, 5, 0,21, 0.00,60.00,Thursday
141,106446070.66960108
190,0.0
2,5, 1, 5, 0,22, 0.00,60.00,Thursday
141,106420137.09947133
190,0.0
2,5, 1, 5, 0,23, 0.00,60.00,Thursday
141,106936418.57081012
190,0.0
2,5, 1, 5, 0,24, 0.00,60.00,Thursday
141,107514396.30497184
190,0.0
2,6, 1, 6, 0, 1, 0.00,60.00,Friday
141,107869678.17738087
190,0.0
2,6, 1, 6, 0, 2, 0.00,60.00,Friday
141,108214466.89077291
190,0.0
2,6, 1, 6, 0, 3, 0.00,60.00,Friday
141,110894829.51936987
190,0.0
2,6, 1, 6, 0, 4, 0.00,60.00,Friday
141,113496565.15025741
190,0.0
2,6, 1, 6, 0, 5, 0.00,60.00,Friday
141,114830262.64632654
190,0.0
2,6, 1, 6, 0, 6, 0.00,60.00,Friday
141,116471946.21620113
190,0.0
2,6, 1, 6, 0, 7, 0.00,60.00,Friday
141,118928696.84526986
190,0.0
2,6, 1, 6, 0, 8, 0.00,60.00,Friday
141,121254858.08769241
190,0.0
2,6, 1, 6, 0, 9, 0.00,60.00,Friday
141,124073364.66237041
190,0.0
2,6, 1, 6, 0,10, 0.00,60.00,Friday
141,125741170.58886078
190,0.0
2,6, 1, 6, 0,11, 0.00,60.00,Friday
141,123825206.81565079
190,0.0
2,6, 1, 6, 0,12, 0.00,60.00,Friday
141,120856323.98053062
190,0.0
2,6, 1, 6, 0,13, 0.00,60.00,Friday
141,119468466.85701126
190,0.0
2,6, 1, 6, 0,14, 0.00,60.00,Friday
141,118936773.21854475
190,0.0
2,6, 1, 6, 0,15, 0.00,60.00,Friday
141,118185558.89890137
190,0.0
2,6, 1, 6, 0,16, 0.00,60.00,Friday
141,116372040.08241351
190,0.0
2,6, 1, 6, 0,17, 0.00,60.00,Friday
141,114484991.63660583
190,0.0
2,6, 1, 6, 0,18, 0.00,60.00,Friday
141,113589718.00497091
190,0.0
2,6, 1, 6, 0,19, 0.00,60.00,Friday
141,112521746.21217966
190,0.0
2,6, 1, 6, 0,20, 0.00,60.00,Friday
141,109899694.13171649
190,0.0
2,6, 1, 6, 0,21, 0.00,60.00,Friday
141,103341050.16608314
190,0.0
2,6, 1, 6, 0,22, 0.00,60.00,Friday
141,95493066.1888376
190,0.0
2,6, 1, 6, 0,23, 0.00,60.00,Friday
141,91981289.97920968
190,0.0
2,6, 1, 6, 0,24, 0.00,60.00,Friday
141,92748095.70839337
190,0.0
2,7, 1, 7, 0, 1, 0.00,60.00,Saturday
141,98950951.8231309
190,0.0
2,7, 1, 7, 0, 2, 0.00,60.00,Saturday
141,105131061.69711193
190,0.0
2,7, 1, 7, 0, 3, 0.00,60.00,Saturday
141,104234599.1783421
190,0.0
2,7, 1, 7, 0, 4, 0.00,60.00,Saturday
141,104704917.94316497
190,0.0
2,7, 1, 7, 0, 5, 0.00,60.00,Saturday
141,108900041.20350906
190,0.0
2,7, 1, 7, 0, 6, 0.00,60.00,Saturday
141,112173558.02163813
190,0.0
2,7, 1, 7, 0, 7, 0.00,60.00,Saturday
141,114080368.77953124
190,0.0
2,7, 1, 7, 0, 8, 0.00,60.00,Saturday
141,115010646.98847501
190,0.0
2,7, 1, 7, 0, 9, 0.00,60.00,Saturday
141,112627835.81996983
190,0.0
2,7, 1, 7, 0,10, 0.00,60.00,Saturday
141,110507185.56558
190,0.0
2,7, 1, 7, 0,11, 0.00,60.00,Saturday
141,104300734.06246525
190,0.0
2,7, 1, 7, 0,12, 0.00,60.00,Saturday
141,98068515.37208724
190,0.0
2,7, 1, 7, 0,13, 0.00,60.00,Saturday
141,93586820.72730234
190,0.0
2,7, 1, 7, 0,14, 0.00,60.00,Saturday
141,91409471.16922897
190,0.0
2,7, 1, 7, 0,15, 0.00,60.00,Saturday
141,92576343.54374254
190,0.0
2,7, 1, 7, 0,16, 0.00,60.00,Saturday
141,94846009.61276947
190,0.0
2,7, 1, 7, 0,17, 0.00,60.00,Saturday
141,96735840.67198263
190,0.0
2,7, 1, 7, 0,18, 0.00,60.00,Saturday
141,99869966.62898353
190,0.0
2,7, 1, 7, 0,19, 0.00,60.00,Saturday
141,102740661.9843454
190,0.0
2,7, 1, 7, 0,20, 0.00,60.00,Saturday
141,105450407.53316912
190,0.0
2,7, 1, 7, 0,21, 0.00,60.00,Saturday
141,107319330.6365339
190,0.0
2,7, 1, 7, 0,22, 0.00,60.00,Saturday
141,107265941.53703792
190,0.0
2,7, 1, 7, 0,23, 0.00,60.00,Saturday
141,107463509.60323502
190,0.0
2,7, 1, 7, 0,24, 0.00,60.00,Saturday
141,107117767.8561711
190,0.0
2,8, 1, 8, 0, 1, 0.00,60.00,Sunday
141,105101402.59564544
190,0.0
2,8, 1, 8, 0, 2, 0.00,60.00,Sunday
141,102786277.12412128
190,0.0
2,8, 1, 8, 0, 3, 0.00,60.00,Sunday
141,100697324.82658456
190,0.0
2,8, 1, 8, 0, 4, 0.00,60.00,Sunday
141,97786537.1111913
190,0.0
2,8, 1, 8, 0, 5, 0.00,60.00,Sunday
141,94294006.7132048
190,0.0
2,8, 1, 8, 0, 6, 0.00,60.00,Sunday
141,91677581.18598445
190,0.0
2,8, 1, 8, 0, 7, 0.00,60.00,Sunday
141,89688214.47678901
190,0.0
2,8, 1, 8, 0, 8, 0.00,60.00,Sunday
141,87993508.1362857
190,0.0
2,8, 1, 8, 0, 9, 0.00,60.00,Sunday
141,86232819.74294859
190,0.0
2,8, 1, 8, 0,10, 0.00,60.00,Sunday
141,85672820.14879258
190,0.0
2,8, 1, 8, 0,11, 0.00,60.00,Sunday
141,85247212.69752541
190,0.0
2,8, 1, 8, 0,12, 0.00,60.00,Sunday
141,85606880.5356522
190,0.0
2,8, 1, 8, 0,13, 0.00,60.00,Sunday
141,85281542.26473394
190,0.0
2,8, 1, 8, 0,14, 0.00,60.00,Sunday
141,85691387.17260595
190,0.0
2,8, 1, 8, 0,15, 0.00,60.00,Sunday
141,89496068.55165115
190,0.0
2,8, 1, 8, 0,16, 0.00,60.00,Sunday
141,92223141.7293679
190,0.0
2,8, 1, 8, 0,17, 0.00,60.00,Sunday
141,92324695.64471306
190,0.0
2,8, 1, 8, 0,18, 0.00,60.00,Sunday
141,93498482.68368024
190,0.0
2,8, 1, 8, 0,19, 0.00,60.00,Sunday
141,92786925.47812976
190,0.0
2,8, 1, 8, 0,20, 0.00,60.00,Sunday
141,90426785.51460803
190,0.0
2,8, 1, 8, 0,21, 0.00,60.00,Sunday
141,88720058.93860827
190,0.0
2,8, 1, 8, 0,22, 0.00,60.00,Sunday
141,89154497.70009732
190,0.0
2,8, 1, 8, 0,23, 0.00,60.00,Sunday
141,89571707.44497822
190,0.0
2,8, 1, 8, 0,24, 0.00,60.00,Sunday
141,90925838.87085408
190,0.0
2,9, 1, 9, 0, 1, 0.00,60.00,Monday
141,91182773.48979115
190,0.0
2,9, 1, 9, 0, 2, 0.00,60.00,Monday
141,91344713.97247173
190,0.0
2,9, 1, 9, 0, 3, 0.00,60.00,Monday
141,91022254.57692167
190,0.0
2,9, 1, 9, 0, 4, 0.00,60.00,Monday
141,90199638.91363497
190,0.0
2,9, 1, 9, 0, 5, 0.00,60.00,Monday
141,88339809.0305988
190,0.0
2,9, 1, 9, 0, 6, 0.00,60.00,Monday
141,86468053.22787382
190,0.0
2,9, 1, 9, 0, 7, 0.00,60.00,Monday
141,85138691.59634854
190,0.0
2,9, 1, 9, 0, 8, 0.00,60.00,Monday
141,84449284.66795821
190,0.0
2,9, 1, 9, 0, 9, 0.00,60.00,Monday
141,82457911.10755436
190,0.0
2,9, 1, 9, 0,10, 0.00,60.00,Monday
141,77524159.4348144
190,0.0
2,9, 1, 9, 0,11, 0.00,60.00,Monday
141,73326802.72866961
190,0.0
2,9, 1, 9, 0,12, 0.00,60.00,Monday
141,71027042.46907139
190,0.0
2,9, 1, 9, 0,13, 0.00,60.00,Monday
141,69132516.9726545
190,0.0
2,9, 1, 9, 0,14, 0.00,60.00,Monday
141,67760024.15324974
190,0.0
2,9, 1, 9, 0,15, 0.00,60.00,Monday
141,67308112.25865065
190,0.0
2,9, 1, 9, 0,16, 0.00,60.00,Monday
141,68335224.0136945
190,0.0
2,9, 1, 9, 0,17, 0.00,60.00,Monday
141,71738230.83886749
190,0.0
2,9, 1, 9, 0,18, 0.00,60.00,Monday
141,74937182.01104173
190,0.0
2,9, 1, 9, 0,19, 0.00,60.00,Monday
141,74662029.80423847
190,0.0
2,9, 1, 9, 0,20, 0.00,60.00,Monday
141,70157662.1386816
190,0.0
2,9, 1, 9, 0,21, 0.00,60.00,Monday
141,65602155.410016105
190,0.0
2,9, 1, 9, 0,22, 0.00,60.00,Monday
141,62796533.731556095
190,0.0
2,9, 1, 9, 0,23, 0.00,60.00,Monday
141,62247777.021831125
190,0.0
2,9, 1, 9, 0,24, 0.00,60.00,Monday
141,62501593.38855065
190,0.0
2,10, 1,10, 0, 1, 0.00,60.00,Tuesday
141,63716072.343057066
190,0.0
2,10, 1,10, 0, 2, 0.00,60.00,Tuesday
141,64536462.55898956
190,0.0
2,10, 1,10, 0, 3, 0.00,60.00,Tuesday
141,64657216.01212084
190,0.0
2,10, 1,10, 0, 4, 0.00,60.00,Tuesday
141,66016510.28319499
190,0.0
2,10, 1,10, 0, 5, 0.00,60.00,Tuesday
141,66498745.79988327
190,0.0
2,10, 1,10, 0, 6, 0.00,60.00,Tuesday
141,66638587.31472201
190,0.0
2,10, 1,10, 0, 7, 0.00,60.00,Tuesday
141,66812054.720531836
190,0.0
2,10, 1,10, 0, 8, 0.00,60.00,Tuesday
141,66319119.51574095
190,0.0
2,10, 1,10, 0, 9, 0.00,60.00,Tuesday
141,65621302.29505234
190,0.0
2,10, 1,10, 0,10, 0.00,60.00,Tuesday
141,64676283.35202004
190,0.0
2,10, 1,10, 0,11, 0.00,60.00,Tuesday
141,63296259.44381413
190,0.0
2,10, 1,10, 0,12, 0.00,60.00,Tuesday
141,61720519.42436904
190,0.0
2,10, 1,10, 0,13, 0.00,60.00,Tuesday
141,61489904.30135076
190,0.0
2,10, 1,10, 0,14, 0.00,60.00,Tuesday
141,67372004.94385363
190,0.0
2,10, 1,10, 0,15, 0.00,60.00,Tuesday
141,72136687.5822819
190,0.0
2,10, 1,10, 0,16, 0.00,60.00,Tuesday
141,75086759.29572399
190,0.0
2,10, 1,10, 0,17, 0.00,60.00,Tuesday
141,78123326.33365728
190,0.0
2,10, 1,10, 0,18, 0.00,60.00,Tuesday
141,82051100.6348715
190,0.0
2,10, 1,10, 0,19, 0.00,60.00,Tuesday
141,84150800.27781866
190,0.0
2,10, 1,10, 0,20, 0.00,60.00,Tuesday
141,85742808.97466464
190,0.0
2,10, 1,10, 0,21, 0.00,60.00,Tuesday
141,88248830.23553094
190,0.0
2,10, 1,10, 0,22, 0.00,60.00,Tuesday
141,89721604.3395891
190,0.0
2,10, 1,10, 0,23, 0.00,60.00,Tuesday
141,88948091.6887953
190,0.0
2,10, 1,10, 0,24, 0.00,60.00,Tuesday
141,90668547.16579351
190,0.0
2,11, 1,11, 0, 1, 0.00,60.00,Wednesday
141,91068437.74863987
190,0.0
2,11, 1,11, 0, 2, 0.00,60.00,Wednesday
141,91486157.26249592
190,0.0
2,11, 1,11, 0, 3, 0.00,60.00,Wednesday
141,92552881.67147018
190,0.0
2,11, 1,11, 0, 4, 0.00,60.00,Wednesday
141,91522339.64123099
190,0.0
2,11, 1,11, 0, 5, 0.00,60.00,Wednesday
141,90853808.60926282
190,0.0
2,11, 1,11, 0, 6, 0.00,60.00,Wednesday
141,90744398.96071757
190,0.0
2,11, 1,11, 0, 7, 0.00,60.00,Wednesday
141,91314792.24180269
190,0.0
2,11, 1,11, 0, 8, 0.00,60.00,Wednesday
141,91959684.13058364
190,0.0
2,11, 1,11, 0, 9, 0.00,60.00,Wednesday
141,91957841.37218168
190,0.0
2,11, 1,11, 0,10, 0.00,60.00,Wednesday
141,91505956.74903409
190,0.0
2,11, 1,11, 0,11, 0.00,60.00,Wednesday
141,90560275.2126534
190,0.0
2,11, 1,11, 0,12, 0.00,60.00,Wednesday
141,88844937.82534413
190,0.0
2,11, 1,11, 0,13, 0.00,60.00,Wednesday
141,87556568.13679
190,0.0
2,11, 1,11, 0,14, 0.00,60.00,Wednesday
141,87112516.80177295
190,0.0
2,11, 1,11, 0,15, 0.00,60.00,Wednesday
141,87114079.04164055
190,0.0
2,11, 1,11, 0,16, 0.00,60.00,Wednesday
141,87301232.54470654
190,0.0
2,11, 1,11, 0,17, 0.00,60.00,Wednesday
141,86344951.71929418
190,0.0
2,11, 1,11, 0,18, 0.00,60.00,Wednesday
141,85391221.30676042
190,0.0
2,11, 1,11, 0,19, 0.00,60.00,Wednesday
141,84707767.8367462
190,0.0
2,11, 1,11, 0,20, 0.00,60.00,Wednesday
141,84612711.4314028
190,0.0
2,11, 1,11, 0,21, 0.00,60.00,Wednesday
141,84542625.49176948
190,0.0
2,11, 1,11, 0,22, 0.00,60.00,Wednesday
141,82385669.62213646
190,0.0
2,11, 1,11, 0,23, 0.00,60.00,Wednesday
141,80705437.97285563
190,0.0
2,11, 1,11, 0,24, 0.00,60.00,Wednesday
141,80776366.09631129
190,0.0
2,12, 1,12, 0, 1, 0.00,60.00,Thursday
141,81506251.37365514
190,0.0
2,12, 1,12, 0, 2, 0.00,60.00,Thursday
141,81573246.24349773
190,0.0
2,12, 1,12, 0, 3, 0.00,60.00,Thursday
141,81047452.5730267
190,0.0
2,12, 1,12, 0, 4, 0.00,60.00,Thursday
141,81091700.76941611
190,0.0
2,12, 1,12, 0, 5, 0.00,60.00,Thursday
141,81805374.77223438
190,0.0
2,12, 1,12, 0, 6, 0.00,60.00,Thursday
141,83524813.291959
190,0.0
2,12, 1,12, 0, 7, 0.00,60.00,Thursday
141,84450399.37814015
190,0.0
2,12, 1,12, 0, 8, 0.00,60.00,Thursday
141,84670566.80349712
190,0.0
2,12, 1,12, 0, 9, 0.00,60.00,Thursday
141,83439962.336426
190,0.0
2,12, 1,12, 0,10, 0.00,60.00,Thursday
141,80774014.88766065
190,0.0
2,12, 1,12, 0,11, 0.00,60.00,Thursday
141,78741600.42404479
190,0.0
2,12, 1,12, 0,12, 0.00,60.00,Thursday
141,77575421.94976322
190,0.0
2,12, 1,12, 0,13, 0.00,60.00,Thursday
141,76047632.70639142
190,0.0
2,12, 1,12, 0,14, 0.00,60.00,Thursday
141,74396627.97220181
190,0.0
2,12, 1,12, 0,15, 0.00,60.00,Thursday
141,74317747.10699722
190,0.0
2,12, 1,12, 0,16, 0.00,60.00,Thursday
141,74949048.7007545
190,0.0
2,12, 1,12, 0,17, 0.00,60.00,Thursday
141,78123691.89882053
190,0.0
2,12, 1,12, 0,18, 0.00,60.00,Thursday
141,79966239.98592858
190,0.0
2,12, 1,12, 0,19, 0.00,60.00,Thursday
141,79176614.85071427
190,0.0
2,12, 1,12, 0,20, 0.00,60.00,Thursday
141,77368967.88903248
190,0.0
2,12, 1,12, 0,21, 0.00,60.00,Thursday
141,76611009.27990648
190,0.0
2,12, 1,12, 0,22, 0.00,60.00,Thursday
141,75377723.5669423
190,0.0
2,12, 1,12, 0,23, 0.00,60.00,Thursday
141,74895497.13128386
190,0.0
2,12, 1,12, 0,24, 0.00,60.00,Thursday
141,74951714.89408074
190,0.0
2,13, 1,13, 0, 1, 0.00,60.00,Friday
141,74138479.99365588
190,0.0
2,13, 1,13, 0, 2, 0.00,60.00,Friday
141,73390768.47430182
190,0.0
2,13, 1,13, 0, 3, 0.00,60.00,Friday
141,72287337.37455875
190,0.0
2,13, 1,13, 0, 4, 0.00,60.00,Friday
141,71602582.48079465
190,0.0
2,13, 1,13, 0, 5, 0.00,60.00,Friday
141,71503868.28778532
190,0.0
2,13, 1,13, 0, 6, 0.00,60.00,Friday
141,71678820.33528252
190,0.0
2,13, 1,13, 0, 7, 0.00,60.00,Friday
141,72308153.33403924
190,0.0
2,13, 1,13, 0, 8, 0.00,60.00,Friday
141,72309163.41010378
190,0.0
2,13, 1,13, 0, 9, 0.00,60.00,Friday
141,71466675.34905101
190,0.0
2,13, 1,13, 0,10, 0.00,60.00,Friday
141,73417632.94495775
190,0.0
2,13, 1,13, 0,11, 0.00,60.00,Friday
141,75606945.90566535
190,0.0
2,13, 1,13, 0,12, 0.00,60.00,Friday
141,75705825.46279329
190,0.0
2,13, 1,13, 0,13, 0.00,60.00,Friday
141,75928826.81716171
190,0.0
2,13, 1,13, 0,14, 0.00,60.00,Friday
141,77260579.60839942
190,0.0
2,13, 1,13, 0,15, 0.00,60.00,Friday
141,77962382.08070785
190,0.0
2,13, 1,13, 0,16, 0.00,60.00,Friday
141,77631619.57015282
190,0.0
2,13, 1,13, 0,17, 0.00,60.00,Friday
141,77105519.55261222
190,0.0
2,13, 1,13, 0,18, 0.00,60.00,Friday
141,76836755.3587437
190,0.0
2,13, 1,13, 0,19, 0.00,60.00,Friday
141,78119017.44962668
190,0.0
2,13, 1,13, 0,20, 0.00,60.00,Friday
141,80430872.5782114
190,0.0
2,13, 1,13, 0,21, 0.00,60.00,Friday
141,82503805.71200092
190,0.0
2,13, 1,13, 0,22, 0.00,60.00,Friday
141,83820621.03509857
190,0.0
2,13, 1,13, 0,23, 0.00,60.00,Friday
141,83350578.48767534
190,0.0
2,13, 1,13, 0,24, 0.00,60.00,Friday
141,88808451.16449346
190,0.0
2,14, 1,14, 0, 1, 0.00,60.00,Saturday
141,92583125.77954805
190,0.0
2,14, 1,14, 0, 2, 0.00,60.00,Saturday
141,91072194.08098269
190,0.0
2,14, 1,14, 0, 3, 0.00,60.00,Saturday
141,91448650.96560709
190,0.0
2,14, 1,14, 0, 4, 0.00,60.00,Saturday
141,90935269.33766732
190,0.0
2,14, 1,14, 0, 5, 0.00,60.00,Saturday
141,90852094.43747754
190,0.0
2,14, 1,14, 0, 6, 0.00,60.00,Saturday
141,94899157.3468692
190,0.0
2,14, 1,14, 0, 7, 0.00,60.00,Saturday
141,97959310.56493431
190,0.0
2,14, 1,14, 0, 8, 0.00,60.00,Saturday
141,97062312.4881351
190,0.0
2,14, 1,14, 0, 9, 0.00,60.00,Saturday
141,98714895.50628026
190,0.0
2,14, 1,14, 0,10, 0.00,60.00,Saturday
141,100918355.09239958
190,0.0
2,14, 1,14, 0,11, 0.00,60.00,Saturday
141,100107291.8740785
190,0.0
2,14, 1,14, 0,12, 0.00,60.00,Saturday
141,98867259.10558459
190,0.0
2,14, 1,14, 0,13, 0.00,60.00,Saturday
141,96663988.3628551
190,0.0
2,14, 1,14, 0,14, 0.00,60.00,Saturday
141,92119178.65378048
190,0.0
2,14, 1,14, 0,15, 0.00,60.00,Saturday
141,91641497.47672999
190,0.0
2,14, 1,14, 0,16, 0.00,60.00,Saturday
141,92798137.5387655
190,0.0
2,14, 1,14, 0,17, 0.00,60.00,Saturday
141,94763357.29954155
190,0.0
2,14, 1,14, 0,18, 0.00,60.00,Saturday
141,98300325.1400867
190,0.0
2,14, 1,14, 0,19, 0.00,60.00,Saturday
141,98428401.85627718
190,0.0
2,14, 1,14, 0,20, 0.00,60.00,Saturday
141,98927502.1613338
190,0.0
2,14, 1,14, 0,21, 0.00,60.00,Saturday
141,98304910.31702068
190,0.0
2,14, 1,14, 0,22, 0.00,60.00,Saturday
141,97132821.77046637
190,0.0
2,14, 1,14, 0,23, 0.00,60.00,Saturday
141,96300768.08728829
190,0.0
2,14, 1,14, 0,24, 0.00,60.00,Saturday
141,95977621.68702072
190,0.0
2,15, 1,15, 0, 1, 0.00,60.00,Sunday
141,93936728.68118525
190,0.0
2,15, 1,15, 0, 2, 0.00,60.00,Sunday
141,89040729.16348143
190,0.0
2,15, 1,15, 0, 3, 0.00,60.00,Sunday
141,86705078.42470488
190,0.0
2,15, 1,15, 0, 4, 0.00,60.00,Sunday
141,85096852.34629697
190,0.0
2,15, 1,15, 0, 5, 0.00,60.00,Sunday
141,82067388.36781
190,0.0
2,15, 1,15, 0, 6, 0.00,60.00,Sunday
141,78873192.27073231
190,0.0
2,15, 1,15, 0, 7, 0.00,60.00,Sunday
141,75717046.96705043
190,0.0
2,15, 1,15, 0, 8, 0.00,60.00,Sunday
141,73654853.99612877
190,0.0
2,15, 1,15, 0, 9, 0.00,60.00,Sunday
141,72098628.15552855
190,0.0
2,15, 1,15, 0,10, 0.00,60.00,Sunday
141,71930464.33696932
190,0.0
2,15, 1,15, 0,11, 0.00,60.00,Sunday
141,73714184.45548369
190,0.0
2,15, 1,15, 0,12, 0.00,60.00,Sunday
141,78219056.0885481
190,0.0
2,15, 1,15, 0,13, 0.00,60.00,Sunday
141,81531915.55337936
190,0.0
2,15, 1,15, 0,14, 0.00,60.00,Sunday
141,82879244.22020638
190,0.0
2,15, 1,15, 0,15, 0.00,60.00,Sunday
141,83377885.0485154
190,0.0
2,15, 1,15, 0,16, 0.00,60.00,Sunday
141,82218185.72435182
190,0.0
2,15, 1,15, 0,17, 0.00,60.00,Sunday
141,81389289.72459239
190,0.0
2,15, 1,15, 0,18, 0.00,60.00,Sunday
141,81591441.90463205
190,0.0
2,15, 1,15, 0,19, 0.00,60.00,Sunday
141,82256193.92688525
190,0.0
2,15, 1,15, 0,20, 0.00,60.00,Sunday
141,83138518.89546967
190,0.0
2,15, 1,15, 0,21, 0.00,60.00,Sunday
141,85115075.94487852
190,0.0
2,15, 1,15, 0,22, 0.00,60.00,Sunday
141,85955776.92925322
190,0.0
2,15, 1,15, 0,23, 0.00,60.00,Sunday
141,85985162.77501336
190,0.0
2,15, 1,15, 0,24, 0.00,60.00,Sunday
141,86426937.14286682
190,0.0
2,16, 1,16, 0, 1, 0.00,60.00,Monday
141,88245595.79160878
190,0.0
2,16, 1,16, 0, 2, 0.00,60.00,Monday
141,89954951.2044695
190,0.0
2,16, 1,16, 0, 3, 0.00,60.00,Monday
141,90899889.33236058
190,0.0
2,16, 1,16, 0, 4, 0.00,60.00,Monday
141,91589304.01301864
190,0.0
2,16, 1,16, 0, 5, 0.00,60.00,Monday
141,92654637.55953203
190,0.0
2,16, 1,16, 0, 6, 0.00,60.00,Monday
141,93580061.2336253
190,0.0
2,16, 1,16, 0, 7, 0.00,60.00,Monday
141,95505744.75890668
190,0.0
2,16, 1,16, 0, 8, 0.00,60.00,Monday
141,97326683.17739442
190,0.0
2,16, 1,16, 0, 9, 0.00,60.00,Monday
141,98121448.19095376
190,0.0
2,16, 1,16, 0,10, 0.00,60.00,Monday
141,98167387.48572326
190,0.0
2,16, 1,16, 0,11, 0.00,60.00,Monday
141,94164576.92072351
190,0.0
2,16, 1,16, 0,12, 0.00,60.00,Monday
141,90644646.7111314
190,0.0
2,16, 1,16, 0,13, 0.00,60.00,Monday
141,87934917.3502498
190,0.0
2,16, 1,16, 0,14, 0.00,60.00,Monday
141,86175122.26460594
190,0.0
2,16, 1,16, 0,15, 0.00,60.00,Monday
141,86068825.1488072
190,0.0
2,16, 1,16, 0,16, 0.00,60.00,Monday
141,86968667.10856587
190,0.0
2,16, 1,16, 0,17, 0.00,60.00,Monday
141,89028069.13740553
190,0.0
2,16, 1,16, 0,18, 0.00,60.00,Monday
141,92887404.28578289
190,0.0
2,16, 1,16, 0,19, 0.00,60.00,Monday
141,96920083.06708637
190,0.0
2,16, 1,16, 0,20, 0.00,60.00,Monday
141,98950108.3394664
190,0.0
2,16, 1,16, 0,21, 0.00,60.00,Monday
141,100539655.13037224
190,0.0
2,16, 1,16, 0,22, 0.00,60.00,Monday
141,101975547.42567791
190,0.0
2,16, 1,16, 0,23, 0.00,60.00,Monday
141,104159025.77277347
190,0.0
2,16, 1,16, 0,24, 0.00,60.00,Monday
141,104615523.07114471
190,0.0
2,17, 1,17, 0, 1, 0.00,60.00,Tuesday
141,105240305.07060912
190,0.0
2,17, 1,17, 0, 2, 0.00,60.00,Tuesday
141,107862723.3038909
190,0.0
2,17, 1,17, 0, 3, 0.00,60.00,Tuesday
141,110029466.68802729
190,0.0
2,17, 1,17, 0, 4, 0.00,60.00,Tuesday
141,111862123.7460291
190,0.0
2,17, 1,17, 0, 5, 0.00,60.00,Tuesday
141,113917197.62166797
190,0.0
2,17, 1,17, 0, 6, 0.00,60.00,Tuesday
141,115995833.56482936
190,0.0
2,17, 1,17, 0, 7, 0.00,60.00,Tuesday
141,117225262.64353035
190,0.0
2,17, 1,17, 0, 8, 0.00,60.00,Tuesday
141,117872666.8829753
190,0.0
2,17, 1,17, 0, 9, 0.00,60.00,Tuesday
141,117990447.20379631
190,0.0
2,17, 1,17, 0,10, 0.00,60.00,Tuesday
141,113366643.19985199
190,0.0
2,17, 1,17, 0,11, 0.00,60.00,Tuesday
141,106567673.73091005
190,0.0
2,17, 1,17, 0,12, 0.00,60.00,Tuesday
141,100736843.82137796
190,0.0
2,17, 1,17, 0,13, 0.00,60.00,Tuesday
141,97406039.10925543
190,0.0
2,17, 1,17, 0,14, 0.00,60.00,Tuesday
141,96813292.7892832
190,0.0
2,17, 1,17, 0,15, 0.00,60.00,Tuesday
141,98121822.177611
190,0.0
2,17, 1,17, 0,16, 0.00,60.00,Tuesday
141,101640711.4630251
190,0.0
2,17, 1,17, 0,17, 0.00,60.00,Tuesday
141,104451672.2919382
190,0.0
2,17, 1,17, 0,18, 0.00,60.00,Tuesday
141,104851047.72132452
190,0.0
2,17, 1,17, 0,19, 0.00,60.00,Tuesday
141,104666660.06491612
190,0.0
2,17, 1,17, 0,20, 0.00,60.00,Tuesday
141,105245319.06743403
190,0.0
2,17, 1,17, 0,21, 0.00,60.00,Tuesday
141,106194631.41522291
190,0.0
2,17, 1,17, 0,22, 0.00,60.00,Tuesday
141,106253141.30571064
190,0.0
2,17, 1,17, 0,23, 0.00,60.00,Tuesday
141,106256840.40948498
190,0.0
2,17, 1,17, 0,24, 0.00,60.00,Tuesday
141,107531509.8950347
190,0.0
2,18, 1,18, 0, 1, 0.00,60.00,Wednesday
141,108279775.1400394
190,0.0
2,18, 1,18, 0, 2, 0.00,60.00,Wednesday
141,108776928.53050017
190,0.0
2,18, 1,18, 0, 3, 0.00,60.00,Wednesday
141,108827686.10354637
190,0.0
2,18, 1,18, 0, 4, 0.00,60.00,Wednesday
141,108566615.81923352
190,0.0
2,18, 1,18, 0, 5, 0.00,60.00,Wednesday
141,108530940.3550511
190,0.0
2,18, 1,18, 0, 6, 0.00,60.00,Wednesday
141,108792701.489083
190,0.0
2,18, 1,18, 0, 7, 0.00,60.00,Wednesday
141,110992818.4274352
190,0.0
2,18, 1,18, 0, 8, 0.00,60.00,Wednesday
141,111592253.69932261
190,0.0
2,18, 1,18, 0, 9, 0.00,60.00,Wednesday
141,111890212.90926476
190,0.0
2,18, 1,18, 0,10, 0.00,60.00,Wednesday
141,111693263.1383484
190,0.0
2,18, 1,18, 0,11, 0.00,60.00,Wednesday
141,109421908.66166851
190,0.0
2,18, 1,18, 0,12, 0.00,60.00,Wednesday
141,107689865.59698288
190,0.0
2,18, 1,18, 0,13, 0.00,60.00,Wednesday
141,108474462.95487604
190,0.0
2,18, 1,18, 0,14, 0.00,60.00,Wednesday
141,110186715.98177125
190,0.0
2,18, 1,18, 0,15, 0.00,60.00,Wednesday
141,111124947.65204933
190,0.0
2,18, 1,18, 0,16, 0.00,60.00,Wednesday
141,113097202.54142427
190,0.0
2,18, 1,18, 0,17, 0.00,60.00,Wednesday
141,114085000.34570903
190,0.0
2,18, 1,18, 0,18, 0.00,60.00,Wednesday
141,113333039.93686938
190,0.0
2,18, 1,18, 0,19, 0.00,60.00,Wednesday
141,112949189.15937437
190,0.0
2,18, 1,18, 0,20, 0.00,60.00,Wednesday
141,113259235.56890559
190,0.0
2,18, 1,18, 0,21, 0.00,60.00,Wednesday
141,113465720.26078537
190,0.0
2,18, 1,18, 0,22, 0.00,60.00,Wednesday
141,114056154.85123773
190,0.0
2,18, 1,18, 0,23, 0.00,60.00,Wednesday
141,114477395.05304408
190,0.0
2,18, 1,18, 0,24, 0.00,60.00,Wednesday
141,115060380.69520465
190,0.0
2,19, 1,19, 0, 1, 0.00,60.00,Thursday
141,114325907.74098831
190,0.0
2,19, 1,19, 0, 2, 0.00,60.00,Thursday
141,114663449.64533845
190,0.0
2,19, 1,19, 0, 3, 0.00,60.00,Thursday
141,116654777.71748851