Program Version,EnergyPlus, Version 24.2.0-94a887817b, YMD=2025.04.24 13:19
1,5,Environment Title[],Latitude[deg],Longitude[deg],Time Zone[],Elevation[m]
2,8,Day of Simulation[],Month[],Day of Month[],DST Indicator[1=yes 0=no],Hour[],StartMinute[],EndMinute[],DayType
3,5,Cumulative Day of Simulation[],Month[],Day of Month[],DST Indicator[1=yes 0=no],DayType  ! When Daily Report Variables Requested
4,2,Cumulative Days of Simulation[],Month[]  ! When Monthly Report Variables Requested
5,1,Cumulative Days of Simulation[] ! When Run Period Report Variables Requested
6,1,Calendar Year of Simulation[] ! When Annual Report Variables Requested
141,1,ZONE_0599100000080736 IDEAL LOADS AIR SYSTEM,Zone Ideal Loads Supply Air Total Heating Energy [J] !Hourly
190,1,ZONE_0599100000080736 IDEAL LOADS AIR SYSTEM,Zone Ideal Loads Supply Air Total Cooling Energy [J] !Hourly
End of Data Dictionary
1,RUN PERIOD 1,  51.96,   4.45,   1.00,  -4.50
2,1, 1, 1, 0, 1, 0.00,60.00,Sunday
141,120457795.59993231
190,0.0
2,1, 1, 1, 0, 2, 0.00,60.00,Sunday
141,125011904.6963637
190,0.0
2,1, 1, 1, 0, 3, 0.00,60.00,Sunday
141,124983157.61062379
190,0.0
2,1, 1, 1, 0, 4, 0.00,60.00,Sunday
141,128363298.97977352
190,0.0
2,1, 1, 1, 0, 5, 0.00,60.00,Sunday
141,130712068.18654159
190,0.0
2,1, 1, 1, 0, 6, 0.00,60.00,Sunday
141,131070377.2485921
190,0.0
2,1, 1, 1, 0, 7, 0.00,60.00,Sunday
141,131614317.74113862
190,0.0
2,1, 1, 1, 0, 8, 0.00,60.00,Sunday
141,131475603.54047215
190,0.0
2,1, 1, 1, 0, 9, 0.00,60.00,Sunday
141,131396409.1572094
190,0.0
2,1, 1, 1, 0,10, 0.00,60.00,Sunday
141,130518514.83426052
190,0.0
2,1, 1, 1, 0,11, 0.00,60.00,Sunday
141,127937675.33297649
190,0.0
2,1, 1, 1, 0,12, 0.00,60.00,Sunday
141,123595224.70959668
190,0.0
2,1, 1, 1, 0,13, 0.00,60.00,Sunday
141,121452734.21923721
190,0.0
2,1, 1, 1, 0,14, 0.00,60.00,Sunday
141,118313920.02264439
190,0.0
2,1, 1, 1, 0,15, 0.00,60.00,Sunday
141,115936805.14067915
190,0.0
2,1, 1, 1, 0,16, 0.00,60.00,Sunday
141,117619270.96782555
190,0.0
2,1, 1, 1, 0,17, 0.00,60.00,Sunday
141,119775419.85896951
190,0.0
2,1, 1, 1, 0,18, 0.00,60.00,Sunday
141,120165376.62397206
190,0.0
2,1, 1, 1, 0,19, 0.00,60.00,Sunday
141,120535365.10785528
190,0.0
2,1, 1, 1, 0,20, 0.00,60.00,Sunday
141,120141776.9071958
190,0.0
2,1, 1, 1, 0,21, 0.00,60.00,Sunday
141,119556044.41681395
190,0.0
2,1, 1, 1, 0,22, 0.00,60.00,Sunday
141,119766937.56987824
190,0.0
2,1, 1, 1, 0,23, 0.00,60.00,Sunday
141,116597485.09203807
190,0.0
2,1, 1, 1, 0,24, 0.00,60.00,Sunday
141,114275919.65772656
190,0.0
2,2, 1, 2, 0, 1, 0.00,60.00,Monday
141,114730911.40433365
190,0.0
2,2, 1, 2, 0, 2, 0.00,60.00,Monday
141,111587044.6729307
190,0.0
2,2, 1, 2, 0, 3, 0.00,60.00,Monday
141,109168531.44413547
190,0.0
2,2, 1, 2, 0, 4, 0.00,60.00,Monday
141,106696771.21583168
190,0.0
2,2, 1, 2, 0, 5, 0.00,60.00,Monday
141,101257005.92186609
190,0.0
2,2, 1, 2, 0, 6, 0.00,60.00,Monday
141,98616553.92483683
190,0.0
2,2, 1, 2, 0, 7, 0.00,60.00,Monday
141,94465372.16875213
190,0.0
2,2, 1, 2, 0, 8, 0.00,60.00,Monday
141,89383192.83891992
190,0.0
2,2, 1, 2, 0, 9, 0.00,60.00,Monday
141,90713711.75226289
190,0.0
2,2, 1, 2, 0,10, 0.00,60.00,Monday
141,94158374.88754128
190,0.0
2,2, 1, 2, 0,11, 0.00,60.00,Monday
141,96390697.70221421
190,0.0
2,2, 1, 2, 0,12, 0.00,60.00,Monday
141,94024227.22366078
190,0.0
2,2, 1, 2, 0,13, 0.00,60.00,Monday
141,92977086.9815233
190,0.0
2,2, 1, 2, 0,14, 0.00,60.00,Monday
141,95477599.29980937
190,0.0
2,2, 1, 2, 0,15, 0.00,60.00,Monday
141,96605901.8170865
190,0.0
2,2, 1, 2, 0,16, 0.00,60.00,Monday
141,99088332.19681849
190,0.0
2,2, 1, 2, 0,17, 0.00,60.00,Monday
141,101561200.5235219
190,0.0
2,2, 1, 2, 0,18, 0.00,60.00,Monday
141,102147398.97355756
190,0.0
2,2, 1, 2, 0,19, 0.00,60.00,Monday
141,104927636.81027636
190,0.0
2,2, 1, 2, 0,20, 0.00,60.00,Monday
141,107518111.01611368
190,0.0
2,2, 1, 2, 0,21, 0.00,60.00,Monday
141,108133317.73117907
190,0.0
2,2, 1, 2, 0,22, 0.00,60.00,Monday
141,108305311.95800668
190,0.0
2,2, 1, 2, 0,23, 0.00,60.00,Monday
141,108662527.53926127
190,0.0
2,2, 1, 2, 0,24, 0.00,60.00,Monday
141,109076543.92955184
190,0.0
2,3, 1, 3, 0, 1, 0.00,60.00,Tuesday
141,109560940.76488341
190,0.0
2,3, 1, 3, 0, 2, 0.00,60.00,Tuesday
141,109808734.16770409
190,0.0
2,3, 1, 3, 0, 3, 0.00,60.00,Tuesday
141,109952716.00615686
190,0.0
2,3, 1, 3, 0, 4, 0.00,60.00,Tuesday
141,110523450.18057665
190,0.0
2,3, 1, 3, 0, 5, 0.00,60.00,Tuesday
141,113634485.9446722
190,0.0
2,3, 1, 3, 0, 6, 0.00,60.00,Tuesday
141,115602923.28218788
190,0.0
2,3, 1, 3, 0, 7, 0.00,60.00,Tuesday
141,116495967.29789764
190,0.0
2,3, 1, 3, 0, 8, 0.00,60.00,Tuesday
141,116151945.49629898
190,0.0
2,3, 1, 3, 0, 9, 0.00,60.00,Tuesday
141,118512989.67422234
190,0.0
2,3, 1, 3, 0,10, 0.00,60.00,Tuesday
141,119592151.17747268
190,0.0
2,3, 1, 3, 0,11, 0.00,60.00,Tuesday
141,119789127.41064571
190,0.0
2,3, 1, 3, 0,12, 0.00,60.00,Tuesday
141,120441679.8183203
190,0.0
2,3, 1, 3, 0,13, 0.00,60.00,Tuesday
141,124172210.15681857
190,0.0
2,3, 1, 3, 0,14, 0.00,60.00,Tuesday
141,126250288.6774342
190,0.0
2,3, 1, 3, 0,15, 0.00,60.00,Tuesday
141,125809449.25690629
190,0.0
2,3, 1, 3, 0,16, 0.00,60.00,Tuesday
141,125392191.70841569
190,0.0
2,3, 1, 3, 0,17, 0.00,60.00,Tuesday
141,125485397.60323052
190,0.0
2,3, 1, 3, 0,18, 0.00,60.00,Tuesday
141,125736688.52183002
190,0.0
2,3, 1, 3, 0,19, 0.00,60.00,Tuesday
141,125057058.03525206
190,0.0
2,3, 1, 3, 0,20, 0.00,60.00,Tuesday
141,122012870.60043523
190,0.0
2,3, 1, 3, 0,21, 0.00,60.00,Tuesday
141,113949755.49903652
190,0.0
2,3, 1, 3, 0,22, 0.00,60.00,Tuesday
141,109688724.11260317
190,0.0
2,3, 1, 3, 0,23, 0.00,60.00,Tuesday
141,112875850.5786474
190,0.0
2,3, 1, 3, 0,24, 0.00,60.00,Tuesday
141,118245079.74900323
190,0.0
2,4, 1, 4, 0, 1, 0.00,60.00,Wednesday
141,120975305.9125146
190,0.0
2,4, 1, 4, 0, 2, 0.00,60.00,Wednesday
141,120710391.75686622
190,0.0
2,4, 1, 4, 0, 3, 0.00,60.00,Wednesday
141,120120091.30868591
190,0.0
2,4, 1, 4, 0, 4, 0.00,60.00,Wednesday
141,121215683.18198948
190,0.0
2,4, 1, 4, 0, 5, 0.00,60.00,Wednesday
141,124871351.23878211
190,0.0
2,4, 1, 4, 0, 6, 0.00,60.00,Wednesday
141,124085590.33087894
190,0.0
2,4, 1, 4, 0, 7, 0.00,60.00,Wednesday
141,123987670.82917812
190,0.0
2,4, 1, 4, 0, 8, 0.00,60.00,Wednesday
141,125409562.50346248
190,0.0
2,4, 1, 4, 0, 9, 0.00,60.00,Wednesday
141,126416834.62937647
190,0.0
2,4, 1, 4, 0,10, 0.00,60.00,Wednesday
141,127214665.34800097
190,0.0
2,4, 1, 4, 0,11, 0.00,60.00,Wednesday
141,120933969.92974676
190,0.0
2,4, 1, 4, 0,12, 0.00,60.00,Wednesday
141,110369180.20949028
190,0.0
2,4, 1, 4, 0,13, 0.00,60.00,Wednesday
141,107641952.6063327
190,0.0
2,4, 1, 4, 0,14, 0.00,60.00,Wednesday
141,107368288.63148062
190,0.0
2,4, 1, 4, 0,15, 0.00,60.00,Wednesday
141,106379152.10517381
190,0.0
2,4, 1, 4, 0,16, 0.00,60.00,Wednesday
141,110704700.96606985
190,0.0
2,4, 1, 4, 0,17, 0.00,60.00,Wednesday
141,118438382.50229439
190,0.0
2,4, 1, 4, 0,18, 0.00,60.00,Wednesday
141,125102492.7889086
190,0.0
2,4, 1, 4, 0,19, 0.00,60.00,Wednesday
141,131894687.15813829
190,0.0
2,4, 1, 4, 0,20, 0.00,60.00,Wednesday
141,135463262.6547637
190,0.0
2,4, 1, 4, 0,21, 0.00,60.00,Wednesday
141,137136173.0027864
190,0.0
2,4, 1, 4, 0,22, 0.00,60.00,Wednesday
141,140609345.10350204
190,0.0
2,4, 1, 4, 0,23, 0.00,60.00,Wednesday
141,139355134.12395212
190,0.0
2,4, 1, 4, 0,24, 0.00,60.00,Wednesday
141,137166520.4360887
190,0.0
2,5, 1, 5, 0, 1, 0.00,60.00,Thursday
141,138360669.04077983
190,0.0
2,5, 1, 5, 0, 2, 0.00,60.00,Thursday
141,136967656.41773045
190,0.0
2,5, 1, 5, 0, 3, 0.00,60.00,Thursday
141,135599446.07267576
190,0.0
2,5, 1, 5, 0, 4, 0.00,60.00,Thursday
141,136141038.55617476
190,0.0
2,5, 1, 5, 0, 5, 0.00,60.00,Thursday
141,134424477.78887022
190,0.0
2,5, 1, 5, 0, 6, 0.00,60.00,Thursday
141,133723214.3216715
190,0.0
2,5, 1, 5, 0, 7, 0.00,60.00,Thursday
141,134992828.36395946
190,0.0
2,5, 1, 5, 0, 8, 0.00,60.00,Thursday
141,136055999.89109558
190,0.0
2,5, 1, 5, 0, 9, 0.00,60.00,Thursday
141,136365619.92580882
190,0.0
2,5, 1, 5, 0,10, 0.00,60.00,Thursday
141,138302934.49540138
190,0.0
2,5, 1, 5, 0,11, 0.00,60.00,Thursday
141,137607717.46443546
190,0.0
2,5, 1, 5, 0,12, 0.00,60.00,Thursday
141,132849012.67049505
190,0.0
2,5, 1, 5, 0,13, 0.00,60.00,Thursday
141,130977968.84491077
190,0.0
2,5, 1, 5, 0,14, 0.00,60.00,Thursday
141,127322801.6264492
190,0.0
2,5, 1, 5, 0,15, 0.00,60.00,Thursday
141,124239624.25389357
190,0.0
2,5, 1, 5, 0,16, 0.00,60.00,Thursday
141,125811370.93618014
190,0.0
2,5, 1, 5, 0,17, 0.00,60.00,Thursday
141,124697564.95691913
190,0.0
2,5, 1, 5, 0,18, 0.00,60.00,Thursday
141,122723904.02286762
190,0.0
2,5, 1, 5, 0,19, 0.00,60.00,Thursday
141,123016387.20515236
190,0.0
2,5, 1, 5, 0,20, 0.00,60.00,Thursday
141,122431098.70273298
190,0.0
2,5, 1, 5, 0,21, 0.00,60.00,Thursday
141,121590868.25557785
190,0.0
2,5, 1, 5, 0,22, 0.00,60.00,Thursday
141,121387545.33180186
190,0.0
2,5, 1, 5, 0,23, 0.00,60.00,Thursday
141,121831874.70181802
190,0.0
2,5, 1, 5, 0,24, 0.00,60.00,Thursday
141,122379555.26715024
190,0.0
2,6, 1, 6, 0, 1, 0.00,60.00,Friday
141,122703063.24715349
190,0.0
2,6, 1, 6, 0, 2, 0.00,60.00,Friday
141,123026544.78685388
190,0.0
2,6, 1, 6, 0, 3, 0.00,60.00,Friday
141,125932632.80927202
190,0.0
2,6, 1, 6, 0, 4, 0.00,60.00,Friday
141,128762556.89978771
190,0.0
2,6, 1, 6, 0, 5, 0.00,60.00,Friday
141,130210483.47322544
190,0.0
2,6, 1, 6, 0, 6, 0.00,60.00,Friday
141,132023659.36414815
190,0.0
2,6, 1, 6, 0, 7, 0.00,60.00,Friday
141,134767360.14351135
190,0.0
2,6, 1, 6, 0, 8, 0.00,60.00,Friday
141,137402789.29878375
190,0.0
2,6, 1, 6, 0, 9, 0.00,60.00,Friday
141,140618913.44806305
190,0.0
2,6, 1, 6, 0,10, 0.00,60.00,Friday
141,142607128.65755546
190,0.0
2,6, 1, 6, 0,11, 0.00,60.00,Friday
141,140683000.28643045
190,0.0
2,6, 1, 6, 0,12, 0.00,60.00,Friday
141,137607586.4139557
190,0.0
2,6, 1, 6, 0,13, 0.00,60.00,Friday
141,136223857.35440692
190,0.0
2,6, 1, 6, 0,14, 0.00,60.00,Friday
141,135675648.76371717
190,0.0
2,6, 1, 6, 0,15, 0.00,60.00,Friday
141,134756470.02988598
190,0.0
2,6, 1, 6, 0,16, 0.00,60.00,Friday
141,132564118.12254302
190,0.0
2,6, 1, 6, 0,17, 0.00,60.00,Friday
141,130252437.20880263
190,0.0
2,6, 1, 6, 0,18, 0.00,60.00,Friday
141,129065809.39630893
190,0.0
2,6, 1, 6, 0,19, 0.00,60.00,Friday
141,127766734.73279217
190,0.0
2,6, 1, 6, 0,20, 0.00,60.00,Friday
141,124869923.64205506
190,0.0
2,6, 1, 6, 0,21, 0.00,60.00,Friday
141,117772875.46638344
190,0.0
2,6, 1, 6, 0,22, 0.00,60.00,Friday
141,109329672.86830114
190,0.0
2,6, 1, 6, 0,23, 0.00,60.00,Friday
141,105652599.42980734
190,0.0
2,6, 1, 6, 0,24, 0.00,60.00,Friday
141,106627850.40383068
190,0.0
2,7, 1, 7, 0, 1, 0.00,60.00,Saturday
141,113526644.09799239
190,0.0
2,7, 1, 7, 0, 2, 0.00,60.00,Saturday
141,120352482.83194517
190,0.0
2,7, 1, 7, 0, 3, 0.00,60.00,Saturday
141,119361642.5973343
190,0.0
2,7, 1, 7, 0, 4, 0.00,60.00,Saturday
141,119885961.82990006
190,0.0
2,7, 1, 7, 0, 5, 0.00,60.00,Saturday
141,124530092.48593089
190,0.0
2,7, 1, 7, 0, 6, 0.00,60.00,Saturday
141,128164746.64666948
190,0.0
2,7, 1, 7, 0, 7, 0.00,60.00,Saturday
141,130296639.18636762
190,0.0
2,7, 1, 7, 0, 8, 0.00,60.00,Saturday
141,131362730.68205734
190,0.0
2,7, 1, 7, 0, 9, 0.00,60.00,Saturday
141,128794971.08913341
190,0.0
2,7, 1, 7, 0,10, 0.00,60.00,Saturday
141,126536334.85362235
190,0.0
2,7, 1, 7, 0,11, 0.00,60.00,Saturday
141,119779502.02048983
190,0.0
2,7, 1, 7, 0,12, 0.00,60.00,Saturday
141,112943696.227232
190,0.0
2,7, 1, 7, 0,13, 0.00,60.00,Saturday
141,107884543.80283524
190,0.0
2,7, 1, 7, 0,14, 0.00,60.00,Saturday
141,105136634.92163837
190,0.0
2,7, 1, 7, 0,15, 0.00,60.00,Saturday
141,105848696.26318304
190,0.0
2,7, 1, 7, 0,16, 0.00,60.00,Saturday
141,107631956.59856465
190,0.0
2,7, 1, 7, 0,17, 0.00,60.00,Saturday
141,108964333.65268892
190,0.0
2,7, 1, 7, 0,18, 0.00,60.00,Saturday
141,111752467.23834279
190,0.0
2,7, 1, 7, 0,19, 0.00,60.00,Saturday
141,114422663.36342646
190,0.0
2,7, 1, 7, 0,20, 0.00,60.00,Saturday
141,117116153.140737
190,0.0
2,7, 1, 7, 0,21, 0.00,60.00,Saturday
141,119069705.54457876
190,0.0
2,7, 1, 7, 0,22, 0.00,60.00,Saturday
141,119055855.65381655
190,0.0
2,7, 1, 7, 0,23, 0.00,60.00,Saturday
141,119436979.97329432
190,0.0
2,7, 1, 7, 0,24, 0.00,60.00,Saturday
141,119330154.09057876
190,0.0
2,8, 1, 8, 0, 1, 0.00,60.00,Sunday
141,117513625.60007896
190,0.0
2,8, 1, 8, 0, 2, 0.00,60.00,Sunday
141,115476262.76673597
190,0.0
2,8, 1, 8, 0, 3, 0.00,60.00,Sunday
141,113738348.97381774
190,0.0
2,8, 1, 8, 0, 4, 0.00,60.00,Sunday
141,111082027.86319235
190,0.0
2,8, 1, 8, 0, 5, 0.00,60.00,Sunday
141,107705436.62080038
190,0.0
2,8, 1, 8, 0, 6, 0.00,60.00,Sunday
141,105174981.67836696
190,0.0
2,8, 1, 8, 0, 7, 0.00,60.00,Sunday
141,103210683.5379417
190,0.0
2,8, 1, 8, 0, 8, 0.00,60.00,Sunday
141,101452780.85831021
190,0.0
2,8, 1, 8, 0, 9, 0.00,60.00,Sunday
141,99520668.12239993
190,0.0
2,8, 1, 8, 0,10, 0.00,60.00,Sunday
141,98831004.10715969
190,0.0
2,8, 1, 8, 0,11, 0.00,60.00,Sunday
141,98228175.19825633
190,0.0
2,8, 1, 8, 0,12, 0.00,60.00,Sunday
141,98449426.24331026
190,0.0
2,8, 1, 8, 0,13, 0.00,60.00,Sunday
141,97885587.39182295
190,0.0
2,8, 1, 8, 0,14, 0.00,60.00,Sunday
141,98128728.68326093
190,0.0
2,8, 1, 8, 0,15, 0.00,60.00,Sunday
141,102147368.76129168
190,0.0
2,8, 1, 8, 0,16, 0.00,60.00,Sunday
141,105030494.80004486
190,0.0
2,8, 1, 8, 0,17, 0.00,60.00,Sunday
141,105085237.57631192
190,0.0
2,8, 1, 8, 0,18, 0.00,60.00,Sunday
141,106407707.58307213
190,0.0
2,8, 1, 8, 0,19, 0.00,60.00,Sunday
141,105736141.21692243
190,0.0
2,8, 1, 8, 0,20, 0.00,60.00,Sunday
141,103297328.3853029
190,0.0
2,8, 1, 8, 0,21, 0.00,60.00,Sunday
141,101598408.07952362
190,0.0
2,8, 1, 8, 0,22, 0.00,60.00,Sunday
141,102272966.31934516
190,0.0
2,8, 1, 8, 0,23, 0.00,60.00,Sunday
141,102925023.02523722
190,0.0
2,8, 1, 8, 0,24, 0.00,60.00,Sunday
141,104597159.5973719
190,0.0
2,9, 1, 9, 0, 1, 0.00,60.00,Monday
141,105046943.31514876
190,0.0
2,9, 1, 9, 0, 2, 0.00,60.00,Monday
141,105386040.67895532
190,0.0
2,9, 1, 9, 0, 3, 0.00,60.00,Monday
141,105191312.94784719
190,0.0
2,9, 1, 9, 0, 4, 0.00,60.00,Monday
141,104430013.9404905
190,0.0
2,9, 1, 9, 0, 5, 0.00,60.00,Monday
141,102487806.46941237
190,0.0
2,9, 1, 9, 0, 6, 0.00,60.00,Monday
141,100479804.15011531
190,0.0
2,9, 1, 9, 0, 7, 0.00,60.00,Monday
141,99011686.5626156
190,0.0
2,9, 1, 9, 0, 8, 0.00,60.00,Monday
141,98194318.9240274
190,0.0
2,9, 1, 9, 0, 9, 0.00,60.00,Monday
141,95895112.65756169
190,0.0
2,9, 1, 9, 0,10, 0.00,60.00,Monday
141,90326442.8622938
190,0.0
2,9, 1, 9, 0,11, 0.00,60.00,Monday
141,85572266.67613962
190,0.0
2,9, 1, 9, 0,12, 0.00,60.00,Monday
141,82906442.26369445
190,0.0
2,9, 1, 9, 0,13, 0.00,60.00,Monday
141,80653480.18024026
190,0.0
2,9, 1, 9, 0,14, 0.00,60.00,Monday
141,78926830.31860298
190,0.0
2,9, 1, 9, 0,15, 0.00,60.00,Monday
141,78178881.49592267
190,0.0
2,9, 1, 9, 0,16, 0.00,60.00,Monday
141,79060399.92838983
190,0.0
2,9, 1, 9, 0,17, 0.00,60.00,Monday
141,82592650.5184335
190,0.0
2,9, 1, 9, 0,18, 0.00,60.00,Monday
141,85951329.23562947
190,0.0
2,9, 1, 9, 0,19, 0.00,60.00,Monday
141,85540346.04302478
190,0.0
2,9, 1, 9, 0,20, 0.00,60.00,Monday
141,80517502.80821761
190,0.0
2,9, 1, 9, 0,21, 0.00,60.00,Monday
141,75456459.4635764
190,0.0
2,9, 1, 9, 0,22, 0.00,60.00,Monday
141,72306514.19392346
190,0.0
2,9, 1, 9, 0,23, 0.00,60.00,Monday
141,71594875.39073601
190,0.0
2,9, 1, 9, 0,24, 0.00,60.00,Monday
141,71702142.4620576
190,0.0
2,10, 1,10, 0, 1, 0.00,60.00,Tuesday
141,72813174.80163619
190,0.0
2,10, 1,10, 0, 2, 0.00,60.00,Tuesday
141,73463280.08874361
190,0.0
2,10, 1,10, 0, 3, 0.00,60.00,Tuesday
141,73343684.29082228
190,0.0
2,10, 1,10, 0, 4, 0.00,60.00,Tuesday
141,74605747.1801916
190,0.0
2,10, 1,10, 0, 5, 0.00,60.00,Tuesday
141,74924295.57121877
190,0.0
2,10, 1,10, 0, 6, 0.00,60.00,Tuesday
141,74897649.91912797
190,0.0
2,10, 1,10, 0, 7, 0.00,60.00,Tuesday
141,74948962.63754192
190,0.0
2,10, 1,10, 0, 8, 0.00,60.00,Tuesday
141,74303660.77464285
190,0.0
2,10, 1,10, 0, 9, 0.00,60.00,Tuesday
141,73462533.35792816
190,0.0
2,10, 1,10, 0,10, 0.00,60.00,Tuesday
141,72373738.81665225
190,0.0
2,10, 1,10, 0,11, 0.00,60.00,Tuesday
141,70824258.89322789
190,0.0
2,10, 1,10, 0,12, 0.00,60.00,Tuesday
141,69068551.91403756
190,0.0
2,10, 1,10, 0,13, 0.00,60.00,Tuesday
141,68793795.38582268
190,0.0
2,10, 1,10, 0,14, 0.00,60.00,Tuesday
141,75261715.70002964
190,0.0
2,10, 1,10, 0,15, 0.00,60.00,Tuesday
141,80530298.36128034
190,0.0
2,10, 1,10, 0,16, 0.00,60.00,Tuesday
141,83865298.37186162
190,0.0
2,10, 1,10, 0,17, 0.00,60.00,Tuesday
141,87390434.66037065
190,0.0
2,10, 1,10, 0,18, 0.00,60.00,Tuesday
141,91997891.65629478
190,0.0
2,10, 1,10, 0,19, 0.00,60.00,Tuesday
141,94719662.6411685
190,0.0
2,10, 1,10, 0,20, 0.00,60.00,Tuesday
141,97032727.28113292
190,0.0
2,10, 1,10, 0,21, 0.00,60.00,Tuesday
141,100490946.44171542
190,0.0
2,10, 1,10, 0,22, 0.00,60.00,Tuesday
141,102899677.58670002
190,0.0
2,10, 1,10, 0,23, 0.00,60.00,Tuesday
141,102873577.34416243
190,0.0
2,10, 1,10, 0,24, 0.00,60.00,Tuesday
141,105609736.59658264
190,0.0
2,11, 1,11, 0, 1, 0.00,60.00,Wednesday
141,106869299.57540943
190,0.0
2,11, 1,11, 0, 2, 0.00,60.00,Wednesday
141,108099904.5162943
190,0.0
2,11, 1,11, 0, 3, 0.00,60.00,Wednesday
141,109965634.42812726
190,0.0
2,11, 1,11, 0, 4, 0.00,60.00,Wednesday
141,109387718.19633466
190,0.0
2,11, 1,11, 0, 5, 0.00,60.00,Wednesday
141,109048267.88335818
190,0.0
2,11, 1,11, 0, 6, 0.00,60.00,Wednesday
141,109171579.98423262
190,0.0
2,11, 1,11, 0, 7, 0.00,60.00,Wednesday
141,109911618.83902141
190,0.0
2,11, 1,11, 0, 8, 0.00,60.00,Wednesday
141,110630773.31365125
190,0.0
2,11, 1,11, 0, 9, 0.00,60.00,Wednesday
141,110560205.0401715
190,0.0
2,11, 1,11, 0,10, 0.00,60.00,Wednesday
141,109942690.39861304
190,0.0
2,11, 1,11, 0,11, 0.00,60.00,Wednesday
141,108745107.09478006
190,0.0
2,11, 1,11, 0,12, 0.00,60.00,Wednesday
141,106642440.0658369
190,0.0
2,11, 1,11, 0,13, 0.00,60.00,Wednesday
141,104905513.99975294
190,0.0
2,11, 1,11, 0,14, 0.00,60.00,Wednesday
141,103968048.91130076
190,0.0
2,11, 1,11, 0,15, 0.00,60.00,Wednesday
141,103400521.94008736
190,0.0
2,11, 1,11, 0,16, 0.00,60.00,Wednesday
141,102964340.54747452
190,0.0
2,11, 1,11, 0,17, 0.00,60.00,Wednesday
141,101260895.70719936
190,0.0
2,11, 1,11, 0,18, 0.00,60.00,Wednesday
141,99625193.62943128
190,0.0
2,11, 1,11, 0,19, 0.00,60.00,Wednesday
141,98406225.07533029
190,0.0
2,11, 1,11, 0,20, 0.00,60.00,Wednesday
141,97971470.90116037
190,0.0
2,11, 1,11, 0,21, 0.00,60.00,Wednesday
141,97675052.36195269
190,0.0
2,11, 1,11, 0,22, 0.00,60.00,Wednesday
141,95160456.4825429
190,0.0
2,11, 1,11, 0,23, 0.00,60.00,Wednesday
141,93223375.04745471
190,0.0
2,11, 1,11, 0,24, 0.00,60.00,Wednesday
141,93243469.73513551
190,0.0
2,12, 1,12, 0, 1, 0.00,60.00,Thursday
141,93996777.98700921
190,0.0
2,12, 1,12, 0, 2, 0.00,60.00,Thursday
141,94016907.25488426
190,0.0
2,12, 1,12, 0, 3, 0.00,60.00,Thursday
141,93384712.05308282
190,0.0
2,12, 1,12, 0, 4, 0.00,60.00,Thursday
141,93388867.20820388
190,0.0
2,12, 1,12, 0, 5, 0.00,60.00,Thursday
141,94139691.81912003
190,0.0
2,12, 1,12, 0, 6, 0.00,60.00,Thursday
141,96004059.65841946
190,0.0
2,12, 1,12, 0, 7, 0.00,60.00,Thursday
141,96994762.46883671
190,0.0
2,12, 1,12, 0, 8, 0.00,60.00,Thursday
141,97210171.23812395
190,0.0
2,12, 1,12, 0, 9, 0.00,60.00,Thursday
141,95831284.81743689
190,0.0
2,12, 1,12, 0,10, 0.00,60.00,Thursday
141,92875525.49308692
190,0.0
2,12, 1,12, 0,11, 0.00,60.00,Thursday
141,90621560.13270101
190,0.0
2,12, 1,12, 0,12, 0.00,60.00,Thursday
141,89334574.3102076
190,0.0
2,12, 1,12, 0,13, 0.00,60.00,Thursday
141,87687515.18276739
190,0.0
2,12, 1,12, 0,14, 0.00,60.00,Thursday
141,85948581.74184683
190,0.0
2,12, 1,12, 0,15, 0.00,60.00,Thursday
141,85969085.70192468
190,0.0
2,12, 1,12, 0,16, 0.00,60.00,Thursday
141,86777362.77214806
190,0.0
2,12, 1,12, 0,17, 0.00,60.00,Thursday
141,90379234.73658444
190,0.0
2,12, 1,12, 0,18, 0.00,60.00,Thursday
141,92496932.49559407
190,0.0
2,12, 1,12, 0,19, 0.00,60.00,Thursday
141,91702486.83397532
190,0.0
2,12, 1,12, 0,20, 0.00,60.00,Thursday
141,89780996.0507574
190,0.0
2,12, 1,12, 0,21, 0.00,60.00,Thursday
141,89003328.91275138
190,0.0
2,12, 1,12, 0,22, 0.00,60.00,Thursday
141,87666045.04739296
190,0.0
2,12, 1,12, 0,23, 0.00,60.00,Thursday
141,87104896.50654298
190,0.0
2,12, 1,12, 0,24, 0.00,60.00,Thursday
141,87088410.05882415
190,0.0
2,13, 1,13, 0, 1, 0.00,60.00,Friday
141,86073953.95526986
190,0.0
2,13, 1,13, 0, 2, 0.00,60.00,Friday
141,85105526.2230142
190,0.0
2,13, 1,13, 0, 3, 0.00,60.00,Friday
141,83730989.17543069
190,0.0
2,13, 1,13, 0, 4, 0.00,60.00,Friday
141,82812971.79326713
190,0.0
2,13, 1,13, 0, 5, 0.00,60.00,Friday
141,82539729.57971606
190,0.0
2,13, 1,13, 0, 6, 0.00,60.00,Friday
141,82571467.00278671
190,0.0
2,13, 1,13, 0, 7, 0.00,60.00,Friday
141,83130245.04612282
190,0.0
2,13, 1,13, 0, 8, 0.00,60.00,Friday
141,83030221.11055018
190,0.0
2,13, 1,13, 0, 9, 0.00,60.00,Friday
141,82018758.53826277
190,0.0
2,13, 1,13, 0,10, 0.00,60.00,Friday
141,84110153.71673568
190,0.0
2,13, 1,13, 0,11, 0.00,60.00,Friday
141,86502426.47869514
190,0.0
2,13, 1,13, 0,12, 0.00,60.00,Friday
141,86633639.2222004
190,0.0
2,13, 1,13, 0,13, 0.00,60.00,Friday
141,86946570.50810793
190,0.0
2,13, 1,13, 0,14, 0.00,60.00,Friday
141,88528890.12679148
190,0.0
2,13, 1,13, 0,15, 0.00,60.00,Friday
141,89452661.3666595
190,0.0
2,13, 1,13, 0,16, 0.00,60.00,Friday
141,89266832.24659915
190,0.0
2,13, 1,13, 0,17, 0.00,60.00,Friday
141,88860740.08105548
190,0.0
2,13, 1,13, 0,18, 0.00,60.00,Friday
141,88687669.29155578
190,0.0
2,13, 1,13, 0,19, 0.00,60.00,Friday
141,90170118.12962519
190,0.0
2,13, 1,13, 0,20, 0.00,60.00,Friday
141,92761313.20800725
190,0.0
2,13, 1,13, 0,21, 0.00,60.00,Friday
141,95117217.27805573
190,0.0
2,13, 1,13, 0,22, 0.00,60.00,Friday
141,96733261.47539838
190,0.0
2,13, 1,13, 0,23, 0.00,60.00,Friday
141,96489366.00424431
190,0.0
2,13, 1,13, 0,24, 0.00,60.00,Friday
141,102859194.04825978
190,0.0
2,14, 1,14, 0, 1, 0.00,60.00,Saturday
141,107394805.12926143
190,0.0
2,14, 1,14, 0, 2, 0.00,60.00,Saturday
141,106068178.63527383
190,0.0
2,14, 1,14, 0, 3, 0.00,60.00,Saturday
141,106758156.52163512
190,0.0
2,14, 1,14, 0, 4, 0.00,60.00,Saturday
141,106402730.80073543
190,0.0
2,14, 1,14, 0, 5, 0.00,60.00,Saturday
141,106468624.02859923
190,0.0
2,14, 1,14, 0, 6, 0.00,60.00,Saturday
141,111079749.48416828
190,0.0
2,14, 1,14, 0, 7, 0.00,60.00,Saturday
141,114655121.93540448
190,0.0
2,14, 1,14, 0, 8, 0.00,60.00,Saturday
141,113943994.47556162
190,0.0
2,14, 1,14, 0, 9, 0.00,60.00,Saturday
141,116112013.52842279
190,0.0
2,14, 1,14, 0,10, 0.00,60.00,Saturday
141,118921937.91252542
190,0.0
2,14, 1,14, 0,11, 0.00,60.00,Saturday
141,118376150.62366161
190,0.0
2,14, 1,14, 0,12, 0.00,60.00,Saturday
141,117269014.49558719
190,0.0
2,14, 1,14, 0,13, 0.00,60.00,Saturday
141,114978779.49063697
190,0.0
2,14, 1,14, 0,14, 0.00,60.00,Saturday
141,109972202.94671443
190,0.0
2,14, 1,14, 0,15, 0.00,60.00,Saturday
141,109313013.64730471
190,0.0
2,14, 1,14, 0,16, 0.00,60.00,Saturday
141,110332176.37611234
190,0.0
2,14, 1,14, 0,17, 0.00,60.00,Saturday
141,112196211.76355422
190,0.0
2,14, 1,14, 0,18, 0.00,60.00,Saturday
141,115903673.39168158
190,0.0
2,14, 1,14, 0,19, 0.00,60.00,Saturday
141,116039471.97925536
190,0.0
2,14, 1,14, 0,20, 0.00,60.00,Saturday
141,116750340.51756607
190,0.0
2,14, 1,14, 0,21, 0.00,60.00,Saturday
141,116340334.5192303
190,0.0
2,14, 1,14, 0,22, 0.00,60.00,Saturday
141,115382754.94680402
190,0.0
2,14, 1,14, 0,23, 0.00,60.00,Saturday
141,114811621.07293466
190,0.0
2,14, 1,14, 0,24, 0.00,60.00,Saturday
141,114774633.36508246
190,0.0
2,15, 1,15, 0, 1, 0.00,60.00,Sunday
141,112788622.0937574
190,0.0
2,15, 1,15, 0, 2, 0.00,60.00,Sunday
141,107578109.8135607
190,0.0
2,15, 1,15, 0, 3, 0.00,60.00,Sunday
141,105090119.97142683
190,0.0
2,15, 1,15, 0, 4, 0.00,60.00,Sunday
141,103279609.46271783
190,0.0
2,15, 1,15, 0, 5, 0.00,60.00,Sunday
141,99771046.69600412
190,0.0
2,15, 1,15, 0, 6, 0.00,60.00,Sunday
141,95964170.74358922
190,0.0
2,15, 1,15, 0, 7, 0.00,60.00,Sunday
141,92107241.65052688
190,0.0
2,15, 1,15, 0, 8, 0.00,60.00,Sunday
141,89384974.38816652
190,0.0
2,15, 1,15, 0, 9, 0.00,60.00,Sunday
141,87168839.23414677
190,0.0
2,15, 1,15, 0,10, 0.00,60.00,Sunday
141,86448994.72071806
190,0.0
2,15, 1,15, 0,11, 0.00,60.00,Sunday
141,87854992.34761871
190,0.0
2,15, 1,15, 0,12, 0.00,60.00,Sunday
141,92252118.67534861
190,0.0
2,15, 1,15, 0,13, 0.00,60.00,Sunday
141,95357626.06656796
190,0.0
2,15, 1,15, 0,14, 0.00,60.00,Sunday
141,96386550.3833327
190,0.0
2,15, 1,15, 0,15, 0.00,60.00,Sunday
141,96619648.10167687
190,0.0
2,15, 1,15, 0,16, 0.00,60.00,Sunday
141,95163708.9672595
190,0.0
2,15, 1,15, 0,17, 0.00,60.00,Sunday
141,94182761.45898898
190,0.0
2,15, 1,15, 0,18, 0.00,60.00,Sunday
141,94397919.2404474
190,0.0
2,15, 1,15, 0,19, 0.00,60.00,Sunday
141,95125114.65496546
190,0.0
2,15, 1,15, 0,20, 0.00,60.00,Sunday
141,96086074.41872881
190,0.0
2,15, 1,15, 0,21, 0.00,60.00,Sunday
141,98291062.7241455
190,0.0
2,15, 1,15, 0,22, 0.00,60.00,Sunday
141,99310962.88602933
190,0.0
2,15, 1,15, 0,23, 0.00,60.00,Sunday
141,99511871.20165679
190,0.0
2,15, 1,15, 0,24, 0.00,60.00,Sunday
141,100230405.51950595
190,0.0
2,16, 1,16, 0, 1, 0.00,60.00,Monday
141,102512863.378227
190,0.0
2,16, 1,16, 0, 2, 0.00,60.00,Monday
141,104701450.60128248
190,0.0
2,16, 1,16, 0, 3, 0.00,60.00,Monday
141,106048481.77837646
190,0.0
2,16, 1,16, 0, 4, 0.00,60.00,Monday
141,107069799.12785915
190,0.0
2,16, 1,16, 0, 5, 0.00,60.00,Monday
141,108433014.57965608
190,0.0
2,16, 1,16, 0, 6, 0.00,60.00,Monday
141,109574481.96623026
190,0.0
2,16, 1,16, 0, 7, 0.00,60.00,Monday
141,111768605.52383532
190,0.0
2,16, 1,16, 0, 8, 0.00,60.00,Monday
141,113812237.33454438
190,0.0
2,16, 1,16, 0, 9, 0.00,60.00,Monday
141,114700736.68507898
190,0.0
2,16, 1,16, 0,10, 0.00,60.00,Monday
141,114752673.61720693
190,0.0
2,16, 1,16, 0,11, 0.00,60.00,Monday
141,110334475.30073856
190,0.0
2,16, 1,16, 0,12, 0.00,60.00,Monday
141,106405287.60745883
190,0.0
2,16, 1,16, 0,13, 0.00,60.00,Monday
141,103257610.04585975
190,0.0
2,16, 1,16, 0,14, 0.00,60.00,Monday
141,101058140.49877706
190,0.0
2,16, 1,16, 0,15, 0.00,60.00,Monday
141,100711635.57319488
190,0.0
2,16, 1,16, 0,16, 0.00,60.00,Monday
141,101578613.86695749
190,0.0
2,16, 1,16, 0,17, 0.00,60.00,Monday
141,103818010.80732413
190,0.0
2,16, 1,16, 0,18, 0.00,60.00,Monday
141,108089091.23772424
190,0.0
2,16, 1,16, 0,19, 0.00,60.00,Monday
141,112539095.0299264
190,0.0
2,16, 1,16, 0,20, 0.00,60.00,Monday
141,114751848.74538574
190,0.0
2,16, 1,16, 0,21, 0.00,60.00,Monday
141,116463919.66397317
190,0.0
2,16, 1,16, 0,22, 0.00,60.00,Monday
141,118001990.6722697
190,0.0
2,16, 1,16, 0,23, 0.00,60.00,Monday
141,120359719.21536943
190,0.0
2,16, 1,16, 0,24, 0.00,60.00,Monday
141,120814675.07003239
190,0.0
2,17, 1,17, 0, 1, 0.00,60.00,Tuesday
141,121508714.80939175
190,0.0
2,17, 1,17, 0, 2, 0.00,60.00,Tuesday
141,124531891.06318957
190,0.0
2,17, 1,17, 0, 3, 0.00,60.00,Tuesday
141,127173536.22861156
190,0.0
2,17, 1,17, 0, 4, 0.00,60.00,Tuesday
141,129496392.74931021
190,0.0
2,17, 1,17, 0, 5, 0.00,60.00,Tuesday
141,132050446.53809156
190,0.0
2,17, 1,17, 0, 6, 0.00,60.00,Tuesday
141,134593716.42576545
190,0.0
2,17, 1,17, 0, 7, 0.00,60.00,Tuesday
141,136164471.52682328
190,0.0
2,17, 1,17, 0, 8, 0.00,60.00,Tuesday
141,137061941.0544588
190,0.0
2,17, 1,17, 0, 9, 0.00,60.00,Tuesday
141,137348452.72336975
190,0.0
2,17, 1,17, 0,10, 0.00,60.00,Tuesday
141,132382751.47271344
190,0.0
2,17, 1,17, 0,11, 0.00,60.00,Tuesday
141,124987746.29642117
190,0.0
2,17, 1,17, 0,12, 0.00,60.00,Tuesday
141,118574491.4171108
190,0.0
2,17, 1,17, 0,13, 0.00,60.00,Tuesday
141,114728811.70891926
190,0.0
2,17, 1,17, 0,14, 0.00,60.00,Tuesday
141,113639465.18803993
190,0.0
2,17, 1,17, 0,15, 0.00,60.00,Tuesday
141,114388471.21643788
190,0.0
2,17, 1,17, 0,16, 0.00,60.00,Tuesday
141,117406381.89573088
190,0.0
2,17, 1,17, 0,17, 0.00,60.00,Tuesday
141,119604240.02529937
190,0.0
2,17, 1,17, 0,18, 0.00,60.00,Tuesday
141,119226904.87694491
190,0.0
2,17, 1,17, 0,19, 0.00,60.00,Tuesday
141,118389893.3226442
190,0.0
2,17, 1,17, 0,20, 0.00,60.00,Tuesday
141,118625486.74591658
190,0.0
2,17, 1,17, 0,21, 0.00,60.00,Tuesday
141,119482185.28441328
190,0.0
2,17, 1,17, 0,22, 0.00,60.00,Tuesday
141,119520026.99764538
190,0.0
2,17, 1,17, 0,23, 0.00,60.00,Tuesday
141,119614681.31566824
190,0.0
2,17, 1,17, 0,24, 0.00,60.00,Tuesday
141,121190784.49866593
190,0.0
2,18, 1,18, 0, 1, 0.00,60.00,Wednesday
141,122267435.31774637
190,0.0
2,18, 1,18, 0, 2, 0.00,60.00,Wednesday
141,123189848.73774835
190,0.0
2,18, 1,18, 0, 3, 0.00,60.00,Wednesday
141,123724356.63495612
190,0.0
2,18, 1,18, 0, 4, 0.00,60.00,Wednesday
141,123935644.8757624
190,0.0
2,18, 1,18, 0, 5, 0.00,60.00,Wednesday
141,124345612.27510199
190,0.0
2,18, 1,18, 0, 6, 0.00,60.00,Wednesday
141,125004692.23899058
190,0.0
2,18, 1,18, 0, 7, 0.00,60.00,Wednesday
141,127718394.28596665
190,0.0
2,18, 1,18, 0, 8, 0.00,60.00,Wednesday
141,128594514.91852827
190,0.0
2,18, 1,18, 0, 9, 0.00,60.00,Wednesday
141,129076765.53337571
190,0.0
2,18, 1,18, 0,10, 0.00,60.00,Wednesday
141,128966557.71780139
190,0.0
2,18, 1,18, 0,11, 0.00,60.00,Wednesday
141,126530460.83574466
190,0.0
2,18, 1,18, 0,12, 0.00,60.00,Wednesday
141,124646939.15115441
190,0.0
2,18, 1,18, 0,13, 0.00,60.00,Wednesday
141,125483563.37721471
190,0.0
2,18, 1,18, 0,14, 0.00,60.00,Wednesday
141,127283489.09708038
190,0.0
2,18, 1,18, 0,15, 0.00,60.00,Wednesday
141,128178401.28769602
190,0.0
2,18, 1,18, 0,16, 0.00,60.00,Wednesday
141,130189303.46824074
190,0.0
2,18, 1,18, 0,17, 0.00,60.00,Wednesday
141,131122188.53607324
190,0.0
2,18, 1,18, 0,18, 0.00,60.00,Wednesday
141,130174090.06644043
190,0.0
2,18, 1,18, 0,19, 0.00,60.00,Wednesday
141,129696300.35011704
190,0.0
2,18, 1,18, 0,20, 0.00,60.00,Wednesday
141,130037862.98387839
190,0.0
2,18, 1,18, 0,21, 0.00,60.00,Wednesday
141,130290468.78071077
190,0.0
2,18, 1,18, 0,22, 0.00,60.00,Wednesday
141,130968733.99825643
190,0.0
2,18, 1,18, 0,23, 0.00,60.00,Wednesday
141,131451143.61449161
190,0.0
2,18, 1,18, 0,24, 0.00,60.00,Wednesday
141,132098675.19456235
190,0.0
2,19, 1,19, 0, 1, 0.00,60.00,Thursday