Program Version,EnergyPlus, Version 24.2.0-94a887817b, YMD=2025.04.24 13:21
1,5,Environment Title[],Latitude[deg],Longitude[deg],Time Zone[],Elevation[m]
2,8,Day of Simulation[],Month[],Day of Month[],DST Indicator[1=yes 0=no],Hour[],StartMinute[],EndMinute[],DayType
3,5,Cumulative Day of Simulation[],Month[],Day of Month[],DST Indicator[1=yes 0=no],DayType  ! When Daily Report Variables Requested
4,2,Cumulative Days of Simulation[],Month[]  ! When Monthly Report Variables Requested
5,1,Cumulative Days of Simulation[] ! When Run Period Report Variables Requested
6,1,Calendar Year of Simulation[] ! When Annual Report Variables Requested
141,1,ZONE_0599100000313510 IDEAL LOADS AIR SYSTEM,Zone Ideal Loads Supply Air Total Heating Energy [J] !Hourly
190,1,ZONE_0599100000313510 IDEAL LOADS AIR SYSTEM,Zone Ideal Loads Supply Air Total Cooling Energy [J] !Hourly
End of Data Dictionary
1,RUN PERIOD 1,  51.96,   4.45,   1.00,  -4.50
2,1, 1, 1, 0, 1, 0.00,60.00,Sunday
141,27052250.23350736
190,0.0
2,1, 1, 1, 0, 2, 0.00,60.00,Sunday
141,28036054.2899319
190,0.0
2,1, 1, 1, 0, 3, 0.00,60.00,Sunday
141,28022486.21641619
190,0.0
2,1, 1, 1, 0, 4, 0.00,60.00,Sunday
141,28746655.37025872
190,0.0
2,1, 1, 1, 0, 5, 0.00,60.00,Sunday
141,29238196.690530926
190,0.0
2,1, 1, 1, 0, 6, 0.00,60.00,Sunday
141,29288001.554307185
190,0.0
2,1, 1, 1, 0, 7, 0.00,60.00,Sunday
141,29370768.157101423
190,0.0
2,1, 1, 1, 0, 8, 0.00,60.00,Sunday
141,29298339.48429198
190,0.0
2,1, 1, 1, 0, 9, 0.00,60.00,Sunday
141,29233761.696367435
190,0.0
2,1, 1, 1, 0,10, 0.00,60.00,Sunday
141,28992336.922432285
190,0.0
2,1, 1, 1, 0,11, 0.00,60.00,Sunday
141,28379662.912442755
190,0.0
2,1, 1, 1, 0,12, 0.00,60.00,Sunday
141,27391579.341645453
190,0.0
2,1, 1, 1, 0,13, 0.00,60.00,Sunday
141,26904978.186377868
190,0.0
2,1, 1, 1, 0,14, 0.00,60.00,Sunday
141,26236030.472389936
190,0.0
2,1, 1, 1, 0,15, 0.00,60.00,Sunday
141,25772406.611138962
190,0.0
2,1, 1, 1, 0,16, 0.00,60.00,Sunday
141,26225689.089003958
190,0.0
2,1, 1, 1, 0,17, 0.00,60.00,Sunday
141,26797473.683006357
190,0.0
2,1, 1, 1, 0,18, 0.00,60.00,Sunday
141,26981353.883644164
190,0.0
2,1, 1, 1, 0,19, 0.00,60.00,Sunday
141,27143287.709097374
190,0.0
2,1, 1, 1, 0,20, 0.00,60.00,Sunday
141,27115878.40493887
190,0.0
2,1, 1, 1, 0,21, 0.00,60.00,Sunday
141,27023967.540062718
190,0.0
2,1, 1, 1, 0,22, 0.00,60.00,Sunday
141,27087060.297331136
190,0.0
2,1, 1, 1, 0,23, 0.00,60.00,Sunday
141,26400798.94708703
190,0.0
2,1, 1, 1, 0,24, 0.00,60.00,Sunday
141,25890055.15923217
190,0.0
2,2, 1, 2, 0, 1, 0.00,60.00,Monday
141,25979238.41373486
190,0.0
2,2, 1, 2, 0, 2, 0.00,60.00,Monday
141,25284992.73749765
190,0.0
2,2, 1, 2, 0, 3, 0.00,60.00,Monday
141,24751235.508750893
190,0.0
2,2, 1, 2, 0, 4, 0.00,60.00,Monday
141,24210844.41681342
190,0.0
2,2, 1, 2, 0, 5, 0.00,60.00,Monday
141,23032033.940058522
190,0.0
2,2, 1, 2, 0, 6, 0.00,60.00,Monday
141,22471874.401075736
190,0.0
2,2, 1, 2, 0, 7, 0.00,60.00,Monday
141,21594079.776192125
190,0.0
2,2, 1, 2, 0, 8, 0.00,60.00,Monday
141,20526150.489408497
190,0.0
2,2, 1, 2, 0, 9, 0.00,60.00,Monday
141,20866347.810511738
190,0.0
2,2, 1, 2, 0,10, 0.00,60.00,Monday
141,21677940.153074153
190,0.0
2,2, 1, 2, 0,11, 0.00,60.00,Monday
141,22235328.568583116
190,0.0
2,2, 1, 2, 0,12, 0.00,60.00,Monday
141,21792426.832047433
190,0.0
2,2, 1, 2, 0,13, 0.00,60.00,Monday
141,21617882.172930714
190,0.0
2,2, 1, 2, 0,14, 0.00,60.00,Monday
141,22185374.601244137
190,0.0
2,2, 1, 2, 0,15, 0.00,60.00,Monday
141,22428863.291039098
190,0.0
2,2, 1, 2, 0,16, 0.00,60.00,Monday
141,22948658.749954127
190,0.0
2,2, 1, 2, 0,17, 0.00,60.00,Monday
141,23450853.94987633
190,0.0
2,2, 1, 2, 0,18, 0.00,60.00,Monday
141,23528810.43073069
190,0.0
2,2, 1, 2, 0,19, 0.00,60.00,Monday
141,24073054.645762727
190,0.0
2,2, 1, 2, 0,20, 0.00,60.00,Monday
141,24566643.48606837
190,0.0
2,2, 1, 2, 0,21, 0.00,60.00,Monday
141,24623284.207541086
190,0.0
2,2, 1, 2, 0,22, 0.00,60.00,Monday
141,24577456.302445203
190,0.0
2,2, 1, 2, 0,23, 0.00,60.00,Monday
141,24566126.20116003
190,0.0
2,2, 1, 2, 0,24, 0.00,60.00,Monday
141,24565894.490310103
190,0.0
2,3, 1, 3, 0, 1, 0.00,60.00,Tuesday
141,24583947.92117693
190,0.0
2,3, 1, 3, 0, 2, 0.00,60.00,Tuesday
141,24554936.422260873
190,0.0
2,3, 1, 3, 0, 3, 0.00,60.00,Tuesday
141,24511096.145372186
190,0.0
2,3, 1, 3, 0, 4, 0.00,60.00,Tuesday
141,24575695.02866806
190,0.0
2,3, 1, 3, 0, 5, 0.00,60.00,Tuesday
141,25213341.090976935
190,0.0
2,3, 1, 3, 0, 6, 0.00,60.00,Tuesday
141,25621492.30258503
190,0.0
2,3, 1, 3, 0, 7, 0.00,60.00,Tuesday
141,25810795.825618513
190,0.0
2,3, 1, 3, 0, 8, 0.00,60.00,Tuesday
141,25741174.572423868
190,0.0
2,3, 1, 3, 0, 9, 0.00,60.00,Tuesday
141,26266255.33763953
190,0.0
2,3, 1, 3, 0,10, 0.00,60.00,Tuesday
141,26515832.906038515
190,0.0
2,3, 1, 3, 0,11, 0.00,60.00,Tuesday
141,26575314.206886373
190,0.0
2,3, 1, 3, 0,12, 0.00,60.00,Tuesday
141,26733227.28017995
190,0.0
2,3, 1, 3, 0,13, 0.00,60.00,Tuesday
141,27551922.348401766
190,0.0
2,3, 1, 3, 0,14, 0.00,60.00,Tuesday
141,28000686.15788701
190,0.0
2,3, 1, 3, 0,15, 0.00,60.00,Tuesday
141,27900090.512974784
190,0.0
2,3, 1, 3, 0,16, 0.00,60.00,Tuesday
141,27809805.12298697
190,0.0
2,3, 1, 3, 0,17, 0.00,60.00,Tuesday
141,27837095.60069669
190,0.0
2,3, 1, 3, 0,18, 0.00,60.00,Tuesday
141,27904669.61472216
190,0.0
2,3, 1, 3, 0,19, 0.00,60.00,Tuesday
141,27773354.048979104
190,0.0
2,3, 1, 3, 0,20, 0.00,60.00,Tuesday
141,27128472.075382955
190,0.0
2,3, 1, 3, 0,21, 0.00,60.00,Tuesday
141,25384319.00538614
190,0.0
2,3, 1, 3, 0,22, 0.00,60.00,Tuesday
141,24448877.624418065
190,0.0
2,3, 1, 3, 0,23, 0.00,60.00,Tuesday
141,25117066.608806267
190,0.0
2,3, 1, 3, 0,24, 0.00,60.00,Tuesday
141,26256588.11623286
190,0.0
2,4, 1, 4, 0, 1, 0.00,60.00,Wednesday
141,26824802.747028034
190,0.0
2,4, 1, 4, 0, 2, 0.00,60.00,Wednesday
141,26736264.558630906
190,0.0
2,4, 1, 4, 0, 3, 0.00,60.00,Wednesday
141,26565201.694742832
190,0.0
2,4, 1, 4, 0, 4, 0.00,60.00,Wednesday
141,26757211.85372265
190,0.0
2,4, 1, 4, 0, 5, 0.00,60.00,Wednesday
141,27512816.28811182
190,0.0
2,4, 1, 4, 0, 6, 0.00,60.00,Wednesday
141,27313031.648798324
190,0.0
2,4, 1, 4, 0, 7, 0.00,60.00,Wednesday
141,27274543.371251233
190,0.0
2,4, 1, 4, 0, 8, 0.00,60.00,Wednesday
141,27576138.586401705
190,0.0
2,4, 1, 4, 0, 9, 0.00,60.00,Wednesday
141,27793635.50232987
190,0.0
2,4, 1, 4, 0,10, 0.00,60.00,Wednesday
141,27969299.88763982
190,0.0
2,4, 1, 4, 0,11, 0.00,60.00,Wednesday
141,26599865.99570992
190,0.0
2,4, 1, 4, 0,12, 0.00,60.00,Wednesday
141,24282723.30286708
190,0.0
2,4, 1, 4, 0,13, 0.00,60.00,Wednesday
141,23660339.871487685
190,0.0
2,4, 1, 4, 0,14, 0.00,60.00,Wednesday
141,23577694.918910187
190,0.0
2,4, 1, 4, 0,15, 0.00,60.00,Wednesday
141,23357877.41236876
190,0.0
2,4, 1, 4, 0,16, 0.00,60.00,Wednesday
141,24312809.920132026
190,0.0
2,4, 1, 4, 0,17, 0.00,60.00,Wednesday
141,26021105.739311602
190,0.0
2,4, 1, 4, 0,18, 0.00,60.00,Wednesday
141,27500705.735644914
190,0.0
2,4, 1, 4, 0,19, 0.00,60.00,Wednesday
141,29002447.563577067
190,0.0
2,4, 1, 4, 0,20, 0.00,60.00,Wednesday
141,29786068.338678855
190,0.0
2,4, 1, 4, 0,21, 0.00,60.00,Wednesday
141,30132572.454019736
190,0.0
2,4, 1, 4, 0,22, 0.00,60.00,Wednesday
141,30844804.120230746
190,0.0
2,4, 1, 4, 0,23, 0.00,60.00,Wednesday
141,30504461.084281825
190,0.0
2,4, 1, 4, 0,24, 0.00,60.00,Wednesday
141,29942886.395371784
190,0.0
2,5, 1, 5, 0, 1, 0.00,60.00,Thursday
141,30107820.867193177
190,0.0
2,5, 1, 5, 0, 2, 0.00,60.00,Thursday
141,29710425.290834527
190,0.0
2,5, 1, 5, 0, 3, 0.00,60.00,Thursday
141,29328635.23058992
190,0.0
2,5, 1, 5, 0, 4, 0.00,60.00,Thursday
141,29380268.40948683
190,0.0
2,5, 1, 5, 0, 5, 0.00,60.00,Thursday
141,28961272.84588178
190,0.0
2,5, 1, 5, 0, 6, 0.00,60.00,Thursday
141,28784607.8399291
190,0.0
2,5, 1, 5, 0, 7, 0.00,60.00,Thursday
141,29056783.454123084
190,0.0
2,5, 1, 5, 0, 8, 0.00,60.00,Thursday
141,29300115.36890064
190,0.0
2,5, 1, 5, 0, 9, 0.00,60.00,Thursday
141,29392920.522795964
190,0.0
2,5, 1, 5, 0,10, 0.00,60.00,Thursday
141,29849425.906008482
190,0.0
2,5, 1, 5, 0,11, 0.00,60.00,Thursday
141,29738646.25106202
190,0.0
2,5, 1, 5, 0,12, 0.00,60.00,Thursday
141,28751789.186432235
190,0.0
2,5, 1, 5, 0,13, 0.00,60.00,Thursday
141,28410538.399011925
190,0.0
2,5, 1, 5, 0,14, 0.00,60.00,Thursday
141,27704734.988331106
190,0.0
2,5, 1, 5, 0,15, 0.00,60.00,Thursday
141,27146390.46857018
190,0.0
2,5, 1, 5, 0,16, 0.00,60.00,Thursday
141,27616966.856132433
190,0.0
2,5, 1, 5, 0,17, 0.00,60.00,Thursday
141,27508662.80734796
190,0.0
2,5, 1, 5, 0,18, 0.00,60.00,Thursday
141,27207807.5644745
190,0.0
2,5, 1, 5, 0,19, 0.00,60.00,Thursday
141,27386856.34691034
190,0.0
2,5, 1, 5, 0,20, 0.00,60.00,Thursday
141,27358731.329699624
190,0.0
2,5, 1, 5, 0,21, 0.00,60.00,Thursday
141,27259998.35198497
190,0.0
2,5, 1, 5, 0,22, 0.00,60.00,Thursday
141,27286940.585439272
190,0.0
2,5, 1, 5, 0,23, 0.00,60.00,Thursday
141,27443346.901274413
190,0.0
2,5, 1, 5, 0,24, 0.00,60.00,Thursday
141,27612895.04527442
190,0.0
2,6, 1, 6, 0, 1, 0.00,60.00,Friday
141,27726741.527473956
190,0.0
2,6, 1, 6, 0, 2, 0.00,60.00,Friday
141,27835405.392784487
190,0.0
2,6, 1, 6, 0, 3, 0.00,60.00,Friday
141,28501658.8663017
190,0.0
2,6, 1, 6, 0, 4, 0.00,60.00,Friday
141,29146602.099463068
190,0.0
2,6, 1, 6, 0, 5, 0.00,60.00,Friday
141,29484934.582279578
190,0.0
2,6, 1, 6, 0, 6, 0.00,60.00,Friday
141,29895342.482434325
190,0.0
2,6, 1, 6, 0, 7, 0.00,60.00,Friday
141,30499209.114431262
190,0.0
2,6, 1, 6, 0, 8, 0.00,60.00,Friday
141,31069374.304533534
190,0.0
2,6, 1, 6, 0, 9, 0.00,60.00,Friday
141,31754927.693146147
190,0.0
2,6, 1, 6, 0,10, 0.00,60.00,Friday
141,32161181.205451224
190,0.0
2,6, 1, 6, 0,11, 0.00,60.00,Friday
141,31703833.898675993
190,0.0
2,6, 1, 6, 0,12, 0.00,60.00,Friday
141,30989677.9525765
190,0.0
2,6, 1, 6, 0,13, 0.00,60.00,Friday
141,30650556.099361952
190,0.0
2,6, 1, 6, 0,14, 0.00,60.00,Friday
141,30513173.219602544
190,0.0
2,6, 1, 6, 0,15, 0.00,60.00,Friday
141,30321120.07210696
190,0.0
2,6, 1, 6, 0,16, 0.00,60.00,Friday
141,29874636.327129483
190,0.0
2,6, 1, 6, 0,17, 0.00,60.00,Friday
141,29413395.305749744
190,0.0
2,6, 1, 6, 0,18, 0.00,60.00,Friday
141,29194468.82423374
190,0.0
2,6, 1, 6, 0,19, 0.00,60.00,Friday
141,28938418.202640638
190,0.0
2,6, 1, 6, 0,20, 0.00,60.00,Friday
141,28312524.349183995
190,0.0
2,6, 1, 6, 0,21, 0.00,60.00,Friday
141,26743433.888729945
190,0.0
2,6, 1, 6, 0,22, 0.00,60.00,Friday
141,24864936.737788294
190,0.0
2,6, 1, 6, 0,23, 0.00,60.00,Friday
141,24026073.2668576
190,0.0
2,6, 1, 6, 0,24, 0.00,60.00,Friday
141,24212920.286576137
190,0.0
2,7, 1, 7, 0, 1, 0.00,60.00,Saturday
141,25703621.473031543
190,0.0
2,7, 1, 7, 0, 2, 0.00,60.00,Saturday
141,27189120.931794755
190,0.0
2,7, 1, 7, 0, 3, 0.00,60.00,Saturday
141,26977660.61452084
190,0.0
2,7, 1, 7, 0, 4, 0.00,60.00,Saturday
141,27095486.83766562
190,0.0
2,7, 1, 7, 0, 5, 0.00,60.00,Saturday
141,28107864.28798592
190,0.0
2,7, 1, 7, 0, 6, 0.00,60.00,Saturday
141,28898586.08615294
190,0.0
2,7, 1, 7, 0, 7, 0.00,60.00,Saturday
141,29359391.018954106
190,0.0
2,7, 1, 7, 0, 8, 0.00,60.00,Saturday
141,29582845.08423672
190,0.0
2,7, 1, 7, 0, 9, 0.00,60.00,Saturday
141,29007720.256588183
190,0.0
2,7, 1, 7, 0,10, 0.00,60.00,Saturday
141,28491520.11338101
190,0.0
2,7, 1, 7, 0,11, 0.00,60.00,Saturday
141,26990683.049553078
190,0.0
2,7, 1, 7, 0,12, 0.00,60.00,Saturday
141,25479995.007608738
190,0.0
2,7, 1, 7, 0,13, 0.00,60.00,Saturday
141,24386430.515617795
190,0.0
2,7, 1, 7, 0,14, 0.00,60.00,Saturday
141,23844834.04213978
190,0.0
2,7, 1, 7, 0,15, 0.00,60.00,Saturday
141,24108027.399769805
190,0.0
2,7, 1, 7, 0,16, 0.00,60.00,Saturday
141,24642648.213752657
190,0.0
2,7, 1, 7, 0,17, 0.00,60.00,Saturday
141,25095377.789410777
190,0.0
2,7, 1, 7, 0,18, 0.00,60.00,Saturday
141,25857458.47270698
190,0.0
2,7, 1, 7, 0,19, 0.00,60.00,Saturday
141,26567595.040518012
190,0.0
2,7, 1, 7, 0,20, 0.00,60.00,Saturday
141,27247117.11223044
190,0.0
2,7, 1, 7, 0,21, 0.00,60.00,Saturday
141,27729306.48623543
190,0.0
2,7, 1, 7, 0,22, 0.00,60.00,Saturday
141,27751132.180943247
190,0.0
2,7, 1, 7, 0,23, 0.00,60.00,Saturday
141,27831197.514376905
190,0.0
2,7, 1, 7, 0,24, 0.00,60.00,Saturday
141,27776981.978047274
190,0.0
2,8, 1, 8, 0, 1, 0.00,60.00,Sunday
141,27316910.794082202
190,0.0
2,8, 1, 8, 0, 2, 0.00,60.00,Sunday
141,26779753.931868605
190,0.0
2,8, 1, 8, 0, 3, 0.00,60.00,Sunday
141,26291512.30803688
190,0.0
2,8, 1, 8, 0, 4, 0.00,60.00,Sunday
141,25601035.58199339
190,0.0
2,8, 1, 8, 0, 5, 0.00,60.00,Sunday
141,24766024.95265711
190,0.0
2,8, 1, 8, 0, 6, 0.00,60.00,Sunday
141,24137447.520406518
190,0.0
2,8, 1, 8, 0, 7, 0.00,60.00,Sunday
141,23656817.010500632
190,0.0
2,8, 1, 8, 0, 8, 0.00,60.00,Sunday
141,23245192.746709485
190,0.0
2,8, 1, 8, 0, 9, 0.00,60.00,Sunday
141,22817069.205370385
190,0.0
2,8, 1, 8, 0,10, 0.00,60.00,Sunday
141,22677378.637971506
190,0.0
2,8, 1, 8, 0,11, 0.00,60.00,Sunday
141,22571195.77681971
190,0.0
2,8, 1, 8, 0,12, 0.00,60.00,Sunday
141,22655880.734076183
190,0.0
2,8, 1, 8, 0,13, 0.00,60.00,Sunday
141,22578180.616943263
190,0.0
2,8, 1, 8, 0,14, 0.00,60.00,Sunday
141,22679359.54702139
190,0.0
2,8, 1, 8, 0,15, 0.00,60.00,Sunday
141,23597635.783240076
190,0.0
2,8, 1, 8, 0,16, 0.00,60.00,Sunday
141,24259635.69429493
190,0.0
2,8, 1, 8, 0,17, 0.00,60.00,Sunday
141,24293432.2350393
190,0.0
2,8, 1, 8, 0,18, 0.00,60.00,Sunday
141,24585555.046134833
190,0.0
2,8, 1, 8, 0,19, 0.00,60.00,Sunday
141,24425452.74075273
190,0.0
2,8, 1, 8, 0,20, 0.00,60.00,Sunday
141,23868934.038303483
190,0.0
2,8, 1, 8, 0,21, 0.00,60.00,Sunday
141,23467475.34179146
190,0.0
2,8, 1, 8, 0,22, 0.00,60.00,Sunday
141,23577342.966351297
190,0.0
2,8, 1, 8, 0,23, 0.00,60.00,Sunday
141,23680140.40768574
190,0.0
2,8, 1, 8, 0,24, 0.00,60.00,Sunday
141,24005451.725636944
190,0.0
2,9, 1, 9, 0, 1, 0.00,60.00,Monday
141,24065147.626396522
190,0.0
2,9, 1, 9, 0, 2, 0.00,60.00,Monday
141,24099889.466801994
190,0.0
2,9, 1, 9, 0, 3, 0.00,60.00,Monday
141,24017052.733999424
190,0.0
2,9, 1, 9, 0, 4, 0.00,60.00,Monday
141,23812773.036626693
190,0.0
2,9, 1, 9, 0, 5, 0.00,60.00,Monday
141,23357921.22099977
190,0.0
2,9, 1, 9, 0, 6, 0.00,60.00,Monday
141,22898189.412782587
190,0.0
2,9, 1, 9, 0, 7, 0.00,60.00,Monday
141,22566682.380794402
190,0.0
2,9, 1, 9, 0, 8, 0.00,60.00,Monday
141,22387453.269932017
190,0.0
2,9, 1, 9, 0, 9, 0.00,60.00,Monday
141,21895498.549114145
190,0.0
2,9, 1, 9, 0,10, 0.00,60.00,Monday
141,20698181.77156201
190,0.0
2,9, 1, 9, 0,11, 0.00,60.00,Monday
141,19679017.13339413
190,0.0
2,9, 1, 9, 0,12, 0.00,60.00,Monday
141,19117209.255260438
190,0.0
2,9, 1, 9, 0,13, 0.00,60.00,Monday
141,18655059.271056022
190,0.0
2,9, 1, 9, 0,14, 0.00,60.00,Monday
141,18320922.78786905
190,0.0
2,9, 1, 9, 0,15, 0.00,60.00,Monday
141,18210755.687993877
190,0.0
2,9, 1, 9, 0,16, 0.00,60.00,Monday
141,18459446.091841206
190,0.0
2,9, 1, 9, 0,17, 0.00,60.00,Monday
141,19281389.78891936
190,0.0
2,9, 1, 9, 0,18, 0.00,60.00,Monday
141,20056930.62707888
190,0.0
2,9, 1, 9, 0,19, 0.00,60.00,Monday
141,20000852.410431113
190,0.0
2,9, 1, 9, 0,20, 0.00,60.00,Monday
141,18931102.383637533
190,0.0
2,9, 1, 9, 0,21, 0.00,60.00,Monday
141,17849331.346063886
190,0.0
2,9, 1, 9, 0,22, 0.00,60.00,Monday
141,17187080.710390523
190,0.0
2,9, 1, 9, 0,23, 0.00,60.00,Monday
141,17065792.340933017
190,0.0
2,9, 1, 9, 0,24, 0.00,60.00,Monday
141,17136730.1852266
190,0.0
2,10, 1,10, 0, 1, 0.00,60.00,Tuesday
141,17438317.792793304
190,0.0
2,10, 1,10, 0, 2, 0.00,60.00,Tuesday
141,17646055.51843247
190,0.0
2,10, 1,10, 0, 3, 0.00,60.00,Tuesday
141,17687029.01932344
190,0.0
2,10, 1,10, 0, 4, 0.00,60.00,Tuesday
141,18026386.19857674
190,0.0
2,10, 1,10, 0, 5, 0.00,60.00,Tuesday
141,18156326.612595357
190,0.0
2,10, 1,10, 0, 6, 0.00,60.00,Tuesday
141,18204745.63464585
190,0.0
2,10, 1,10, 0, 7, 0.00,60.00,Tuesday
141,18261287.219550367
190,0.0
2,10, 1,10, 0, 8, 0.00,60.00,Tuesday
141,18157297.16246278
190,0.0
2,10, 1,10, 0, 9, 0.00,60.00,Tuesday
141,18002911.203160062
190,0.0
2,10, 1,10, 0,10, 0.00,60.00,Tuesday
141,17787605.909707334
190,0.0
2,10, 1,10, 0,11, 0.00,60.00,Tuesday
141,17466144.307263047
190,0.0
2,10, 1,10, 0,12, 0.00,60.00,Tuesday
141,17095876.29475314
190,0.0
2,10, 1,10, 0,13, 0.00,60.00,Tuesday
141,17046564.7698926
190,0.0
2,10, 1,10, 0,14, 0.00,60.00,Tuesday
141,18462376.168211393
190,0.0
2,10, 1,10, 0,15, 0.00,60.00,Tuesday
141,19608815.281919323
190,0.0
2,10, 1,10, 0,16, 0.00,60.00,Tuesday
141,20318730.90264698
190,0.0
2,10, 1,10, 0,17, 0.00,60.00,Tuesday
141,21048053.376245797
190,0.0
2,10, 1,10, 0,18, 0.00,60.00,Tuesday
141,21989243.126364954
190,0.0
2,10, 1,10, 0,19, 0.00,60.00,Tuesday
141,22488992.770692833
190,0.0
2,10, 1,10, 0,20, 0.00,60.00,Tuesday
141,22863125.86026496
190,0.0
2,10, 1,10, 0,21, 0.00,60.00,Tuesday
141,23451614.827717558
190,0.0
2,10, 1,10, 0,22, 0.00,60.00,Tuesday
141,23785999.81170619
190,0.0
2,10, 1,10, 0,23, 0.00,60.00,Tuesday
141,23574128.818015054
190,0.0
2,10, 1,10, 0,24, 0.00,60.00,Tuesday
141,23954211.451125186
190,0.0
2,11, 1,11, 0, 1, 0.00,60.00,Wednesday
141,24010495.978122987
190,0.0
2,11, 1,11, 0, 2, 0.00,60.00,Wednesday
141,24064511.538536523
190,0.0
2,11, 1,11, 0, 3, 0.00,60.00,Wednesday
141,24268710.951846056
190,0.0
2,11, 1,11, 0, 4, 0.00,60.00,Wednesday
141,23965224.165448338
190,0.0
2,11, 1,11, 0, 5, 0.00,60.00,Wednesday
141,23745207.724327862
190,0.0
2,11, 1,11, 0, 6, 0.00,60.00,Wednesday
141,23657001.55911372
190,0.0
2,11, 1,11, 0, 7, 0.00,60.00,Wednesday
141,23730701.5137009
190,0.0
2,11, 1,11, 0, 8, 0.00,60.00,Wednesday
141,23822375.64238428
190,0.0
2,11, 1,11, 0, 9, 0.00,60.00,Wednesday
141,23760371.628492236
190,0.0
2,11, 1,11, 0,10, 0.00,60.00,Wednesday
141,23593182.955949143
190,0.0
2,11, 1,11, 0,11, 0.00,60.00,Wednesday
141,23311307.760968555
190,0.0
2,11, 1,11, 0,12, 0.00,60.00,Wednesday
141,22849214.94677147
190,0.0
2,11, 1,11, 0,13, 0.00,60.00,Wednesday
141,22494539.210353594
190,0.0
2,11, 1,11, 0,14, 0.00,60.00,Wednesday
141,22348138.02431012
190,0.0
2,11, 1,11, 0,15, 0.00,60.00,Wednesday
141,22315450.404293723
190,0.0
2,11, 1,11, 0,16, 0.00,60.00,Wednesday
141,22335408.821384456
190,0.0
2,11, 1,11, 0,17, 0.00,60.00,Wednesday
141,22090210.63454156
190,0.0
2,11, 1,11, 0,18, 0.00,60.00,Wednesday
141,21855110.64050354
190,0.0
2,11, 1,11, 0,19, 0.00,60.00,Wednesday
141,21693585.956291646
190,0.0
2,11, 1,11, 0,20, 0.00,60.00,Wednesday
141,21680140.670834985
190,0.0
2,11, 1,11, 0,21, 0.00,60.00,Wednesday
141,21676311.73527969
190,0.0
2,11, 1,11, 0,22, 0.00,60.00,Wednesday
141,21173536.06887621
190,0.0
2,11, 1,11, 0,23, 0.00,60.00,Wednesday
141,20785322.859972425
190,0.0
2,11, 1,11, 0,24, 0.00,60.00,Wednesday
141,20816542.333780304
190,0.0
2,12, 1,12, 0, 1, 0.00,60.00,Thursday
141,21004801.567567807
190,0.0
2,12, 1,12, 0, 2, 0.00,60.00,Thursday
141,21032992.304906987
190,0.0
2,12, 1,12, 0, 3, 0.00,60.00,Thursday
141,20918144.45759072
190,0.0
2,12, 1,12, 0, 4, 0.00,60.00,Thursday
141,20939374.098220877
190,0.0
2,12, 1,12, 0, 5, 0.00,60.00,Thursday
141,21120424.590947997
190,0.0
2,12, 1,12, 0, 6, 0.00,60.00,Thursday
141,21541821.632110674
190,0.0
2,12, 1,12, 0, 7, 0.00,60.00,Thursday
141,21771700.827096775
190,0.0
2,12, 1,12, 0, 8, 0.00,60.00,Thursday
141,21831373.689477965
190,0.0
2,12, 1,12, 0, 9, 0.00,60.00,Thursday
141,21542159.17577434
190,0.0
2,12, 1,12, 0,10, 0.00,60.00,Thursday
141,20907928.06711846
190,0.0
2,12, 1,12, 0,11, 0.00,60.00,Thursday
141,20425294.402185716
190,0.0
2,12, 1,12, 0,12, 0.00,60.00,Thursday
141,20150367.314918026
190,0.0
2,12, 1,12, 0,13, 0.00,60.00,Thursday
141,19788861.368036445
190,0.0
2,12, 1,12, 0,14, 0.00,60.00,Thursday
141,19398233.738347046
190,0.0
2,12, 1,12, 0,15, 0.00,60.00,Thursday
141,19385340.42702743
190,0.0
2,12, 1,12, 0,16, 0.00,60.00,Thursday
141,19543291.425063487
190,0.0
2,12, 1,12, 0,17, 0.00,60.00,Thursday
141,20311811.66885897
190,0.0
2,12, 1,12, 0,18, 0.00,60.00,Thursday
141,20760914.600182623
190,0.0
2,12, 1,12, 0,19, 0.00,60.00,Thursday
141,20578575.719459657
190,0.0
2,12, 1,12, 0,20, 0.00,60.00,Thursday
141,20152002.61396563
190,0.0
2,12, 1,12, 0,21, 0.00,60.00,Thursday
141,19977195.04592771
190,0.0
2,12, 1,12, 0,22, 0.00,60.00,Thursday
141,19688133.493867233
190,0.0
2,12, 1,12, 0,23, 0.00,60.00,Thursday
141,19579093.626506314
190,0.0
2,12, 1,12, 0,24, 0.00,60.00,Thursday
141,19599215.453452334
190,0.0
2,13, 1,13, 0, 1, 0.00,60.00,Friday
141,19410918.484901268
190,0.0
2,13, 1,13, 0, 2, 0.00,60.00,Friday
141,19238781.707935844
190,0.0
2,13, 1,13, 0, 3, 0.00,60.00,Friday
141,18981990.14322882
190,0.0
2,13, 1,13, 0, 4, 0.00,60.00,Friday
141,18826706.70845718
190,0.0
2,13, 1,13, 0, 5, 0.00,60.00,Friday
141,18812934.97583067
190,0.0
2,13, 1,13, 0, 6, 0.00,60.00,Friday
141,18865225.2753234
190,0.0
2,13, 1,13, 0, 7, 0.00,60.00,Friday
141,19027080.637938924
190,0.0
2,13, 1,13, 0, 8, 0.00,60.00,Friday
141,19038593.89121606
190,0.0
2,13, 1,13, 0, 9, 0.00,60.00,Friday
141,18847908.08269938
190,0.0
2,13, 1,13, 0,10, 0.00,60.00,Friday
141,19327439.18036186
190,0.0
2,13, 1,13, 0,11, 0.00,60.00,Friday
141,19863880.98601181
190,0.0
2,13, 1,13, 0,12, 0.00,60.00,Friday
141,19898194.598111868
190,0.0
2,13, 1,13, 0,13, 0.00,60.00,Friday
141,19961016.911153924
190,0.0
2,13, 1,13, 0,14, 0.00,60.00,Friday
141,20288695.84037294
190,0.0
2,13, 1,13, 0,15, 0.00,60.00,Friday
141,20463436.45422266
190,0.0
2,13, 1,13, 0,16, 0.00,60.00,Friday
141,20388840.803958185
190,0.0
2,13, 1,13, 0,17, 0.00,60.00,Friday
141,20265368.886282615
190,0.0
2,13, 1,13, 0,18, 0.00,60.00,Friday
141,20201509.662129715
190,0.0
2,13, 1,13, 0,19, 0.00,60.00,Friday
141,20507840.88703676
190,0.0
2,13, 1,13, 0,20, 0.00,60.00,Friday
141,21059465.628108192
190,0.0
2,13, 1,13, 0,21, 0.00,60.00,Friday
141,21551993.428704433
190,0.0
2,13, 1,13, 0,22, 0.00,60.00,Friday
141,21861114.351631902
190,0.0
2,13, 1,13, 0,23, 0.00,60.00,Friday
141,21739307.254915256
190,0.0
2,13, 1,13, 0,24, 0.00,60.00,Friday
141,23037510.235270623
190,0.0
2,14, 1,14, 0, 1, 0.00,60.00,Saturday
141,23929396.24759827
190,0.0
2,14, 1,14, 0, 2, 0.00,60.00,Saturday
141,23550576.86632079
190,0.0
2,14, 1,14, 0, 3, 0.00,60.00,Saturday
141,23622159.586663112
190,0.0
2,14, 1,14, 0, 4, 0.00,60.00,Saturday
141,23477376.249761716
190,0.0
2,14, 1,14, 0, 5, 0.00,60.00,Saturday
141,23433635.52143034
190,0.0
2,14, 1,14, 0, 6, 0.00,60.00,Saturday
141,24379425.94045686
190,0.0
2,14, 1,14, 0, 7, 0.00,60.00,Saturday
141,25087476.93016418
190,0.0
2,14, 1,14, 0, 8, 0.00,60.00,Saturday
141,24845566.73288878
190,0.0
2,14, 1,14, 0, 9, 0.00,60.00,Saturday
141,25215137.64667732
190,0.0
2,14, 1,14, 0,10, 0.00,60.00,Saturday
141,25716557.44122523
190,0.0
2,14, 1,14, 0,11, 0.00,60.00,Saturday
141,25494118.081343565
190,0.0
2,14, 1,14, 0,12, 0.00,60.00,Saturday
141,25167992.256720874
190,0.0
2,14, 1,14, 0,13, 0.00,60.00,Saturday
141,24610017.576487187
190,0.0
2,14, 1,14, 0,14, 0.00,60.00,Saturday
141,23490055.39771906
190,0.0
2,14, 1,14, 0,15, 0.00,60.00,Saturday
141,23347051.071466677
190,0.0
2,14, 1,14, 0,16, 0.00,60.00,Saturday
141,23598923.348149564
190,0.0
2,14, 1,14, 0,17, 0.00,60.00,Saturday
141,24049134.00527183
190,0.0
2,14, 1,14, 0,18, 0.00,60.00,Saturday
141,24881738.4672338
190,0.0
2,14, 1,14, 0,19, 0.00,60.00,Saturday
141,24901308.998859864
190,0.0
2,14, 1,14, 0,20, 0.00,60.00,Saturday
141,25013263.76790448
190,0.0
2,14, 1,14, 0,21, 0.00,60.00,Saturday
141,24857536.03567064
190,0.0
2,14, 1,14, 0,22, 0.00,60.00,Saturday
141,24569765.808286168
190,0.0
2,14, 1,14, 0,23, 0.00,60.00,Saturday
141,24362243.295077823
190,0.0
2,14, 1,14, 0,24, 0.00,60.00,Saturday
141,24274908.567089155
190,0.0
2,15, 1,15, 0, 1, 0.00,60.00,Sunday
141,23773434.995839305
190,0.0
2,15, 1,15, 0, 2, 0.00,60.00,Sunday
141,22585279.794531517
190,0.0
2,15, 1,15, 0, 3, 0.00,60.00,Sunday
141,22010439.11306425
190,0.0
2,15, 1,15, 0, 4, 0.00,60.00,Sunday
141,21609803.26423433
190,0.0
2,15, 1,15, 0, 5, 0.00,60.00,Sunday
141,20868623.439107552
190,0.0
2,15, 1,15, 0, 6, 0.00,60.00,Sunday
141,20089484.709085215
190,0.0
2,15, 1,15, 0, 7, 0.00,60.00,Sunday
141,19322344.39998307
190,0.0
2,15, 1,15, 0, 8, 0.00,60.00,Sunday
141,18821754.00550281
190,0.0
2,15, 1,15, 0, 9, 0.00,60.00,Sunday
141,18447660.555986423
190,0.0
2,15, 1,15, 0,10, 0.00,60.00,Sunday
141,18412816.40378692
190,0.0
2,15, 1,15, 0,11, 0.00,60.00,Sunday
141,18851411.761725202
190,0.0
2,15, 1,15, 0,12, 0.00,60.00,Sunday
141,19948392.146714523
190,0.0
2,15, 1,15, 0,13, 0.00,60.00,Sunday
141,20764808.754154563
190,0.0
2,15, 1,15, 0,14, 0.00,60.00,Sunday
141,21114952.089218788
190,0.0
2,15, 1,15, 0,15, 0.00,60.00,Sunday
141,21265688.430068195
190,0.0
2,15, 1,15, 0,16, 0.00,60.00,Sunday
141,21021230.41934711
190,0.0
2,15, 1,15, 0,17, 0.00,60.00,Sunday
141,20857147.969122034
190,0.0
2,15, 1,15, 0,18, 0.00,60.00,Sunday
141,20939898.47618473
190,0.0
2,15, 1,15, 0,19, 0.00,60.00,Sunday
141,21131951.841436747
190,0.0
2,15, 1,15, 0,20, 0.00,60.00,Sunday
141,21373784.908233557
190,0.0
2,15, 1,15, 0,21, 0.00,60.00,Sunday
141,21875002.07419439
190,0.0
2,15, 1,15, 0,22, 0.00,60.00,Sunday
141,22100977.119345568
190,0.0
2,15, 1,15, 0,23, 0.00,60.00,Sunday
141,22129629.549527757
190,0.0
2,15, 1,15, 0,24, 0.00,60.00,Sunday
141,22253950.3287453
190,0.0
2,16, 1,16, 0, 1, 0.00,60.00,Monday
141,22705034.121775802
190,0.0
2,16, 1,16, 0, 2, 0.00,60.00,Monday
141,23126064.643206067
190,0.0
2,16, 1,16, 0, 3, 0.00,60.00,Monday
141,23359785.811891556
190,0.0
2,16, 1,16, 0, 4, 0.00,60.00,Monday
141,23528390.845797464
190,0.0
2,16, 1,16, 0, 5, 0.00,60.00,Monday
141,23783614.894724585
190,0.0
2,16, 1,16, 0, 6, 0.00,60.00,Monday
141,24002008.067131944
190,0.0
2,16, 1,16, 0, 7, 0.00,60.00,Monday
141,24457458.665405806
190,0.0
2,16, 1,16, 0, 8, 0.00,60.00,Monday
141,24885119.724043183
190,0.0
2,16, 1,16, 0, 9, 0.00,60.00,Monday
141,25063849.92116717
190,0.0
2,16, 1,16, 0,10, 0.00,60.00,Monday
141,25060724.793542042
190,0.0
2,16, 1,16, 0,11, 0.00,60.00,Monday
141,24084701.971606985
190,0.0
2,16, 1,16, 0,12, 0.00,60.00,Monday
141,23223322.268860266
190,0.0
2,16, 1,16, 0,13, 0.00,60.00,Monday
141,22555731.629282646
190,0.0
2,16, 1,16, 0,14, 0.00,60.00,Monday
141,22116679.41284797
190,0.0
2,16, 1,16, 0,15, 0.00,60.00,Monday
141,22076814.638246574
190,0.0
2,16, 1,16, 0,16, 0.00,60.00,Monday
141,22282903.367205873
190,0.0
2,16, 1,16, 0,17, 0.00,60.00,Monday
141,22771910.056454834
190,0.0
2,16, 1,16, 0,18, 0.00,60.00,Monday
141,23696629.45264745
190,0.0
2,16, 1,16, 0,19, 0.00,60.00,Monday
141,24666327.575418577
190,0.0
2,16, 1,16, 0,20, 0.00,60.00,Monday
141,25157769.963036988
190,0.0
2,16, 1,16, 0,21, 0.00,60.00,Monday
141,25544456.90514724
190,0.0
2,16, 1,16, 0,22, 0.00,60.00,Monday
141,25894032.747865338
190,0.0
2,16, 1,16, 0,23, 0.00,60.00,Monday
141,26422043.11750612
190,0.0
2,16, 1,16, 0,24, 0.00,60.00,Monday
141,26534573.087390523
190,0.0
2,17, 1,17, 0, 1, 0.00,60.00,Tuesday
141,26686543.84934385
190,0.0
2,17, 1,17, 0, 2, 0.00,60.00,Tuesday
141,27317068.488118935
190,0.0
2,17, 1,17, 0, 3, 0.00,60.00,Tuesday
141,27837466.864419714
190,0.0
2,17, 1,17, 0, 4, 0.00,60.00,Tuesday
141,28276616.048303574
190,0.0
2,17, 1,17, 0, 5, 0.00,60.00,Tuesday
141,28767326.51746619
190,0.0
2,17, 1,17, 0, 6, 0.00,60.00,Tuesday
141,29260106.52048619
190,0.0
2,17, 1,17, 0, 7, 0.00,60.00,Tuesday
141,29545110.56031494
190,0.0
2,17, 1,17, 0, 8, 0.00,60.00,Tuesday
141,29685922.591915794
190,0.0
2,17, 1,17, 0, 9, 0.00,60.00,Tuesday
141,29694836.58187723
190,0.0
2,17, 1,17, 0,10, 0.00,60.00,Tuesday
141,28561621.6040988
190,0.0
2,17, 1,17, 0,11, 0.00,60.00,Tuesday
141,26902867.996985715
190,0.0
2,17, 1,17, 0,12, 0.00,60.00,Tuesday
141,25473827.738399528
190,0.0
2,17, 1,17, 0,13, 0.00,60.00,Tuesday
141,24643497.899537254
190,0.0
2,17, 1,17, 0,14, 0.00,60.00,Tuesday
141,24471398.944019012
190,0.0
2,17, 1,17, 0,15, 0.00,60.00,Tuesday
141,24760816.295647822
190,0.0
2,17, 1,17, 0,16, 0.00,60.00,Tuesday
141,25590063.937866144
190,0.0
2,17, 1,17, 0,17, 0.00,60.00,Tuesday
141,26261621.038998112
190,0.0
2,17, 1,17, 0,18, 0.00,60.00,Tuesday
141,26368683.147924937
190,0.0
2,17, 1,17, 0,19, 0.00,60.00,Tuesday
141,26347603.074501213
190,0.0
2,17, 1,17, 0,20, 0.00,60.00,Tuesday
141,26520086.092720896
190,0.0
2,17, 1,17, 0,21, 0.00,60.00,Tuesday
141,26787204.17755545
190,0.0
2,17, 1,17, 0,22, 0.00,60.00,Tuesday
141,26842261.173120927
190,0.0
2,17, 1,17, 0,23, 0.00,60.00,Tuesday
141,26882840.2603165
190,0.0
2,17, 1,17, 0,24, 0.00,60.00,Tuesday
141,27225136.18362551
190,0.0
2,18, 1,18, 0, 1, 0.00,60.00,Wednesday
141,27436769.790881686
190,0.0
2,18, 1,18, 0, 2, 0.00,60.00,Wednesday
141,27583257.302352507
190,0.0
2,18, 1,18, 0, 3, 0.00,60.00,Wednesday
141,27617660.50959883
190,0.0
2,18, 1,18, 0, 4, 0.00,60.00,Wednesday
141,27572286.301175952
190,0.0
2,18, 1,18, 0, 5, 0.00,60.00,Wednesday
141,27576453.784594677
190,0.0
2,18, 1,18, 0, 6, 0.00,60.00,Wednesday
141,27647764.732323244
190,0.0
2,18, 1,18, 0, 7, 0.00,60.00,Wednesday
141,28180021.443056855
190,0.0
2,18, 1,18, 0, 8, 0.00,60.00,Wednesday
141,28324478.397582136
190,0.0
2,18, 1,18, 0, 9, 0.00,60.00,Wednesday
141,28393537.730666682
190,0.0
2,18, 1,18, 0,10, 0.00,60.00,Wednesday
141,28341591.590258226
190,0.0
2,18, 1,18, 0,11, 0.00,60.00,Wednesday
141,27790450.82202891
190,0.0
2,18, 1,18, 0,12, 0.00,60.00,Wednesday
141,27367890.15820965
190,0.0
2,18, 1,18, 0,13, 0.00,60.00,Wednesday
141,27548946.489750016
190,0.0
2,18, 1,18, 0,14, 0.00,60.00,Wednesday
141,27953975.192004196
190,0.0
2,18, 1,18, 0,15, 0.00,60.00,Wednesday
141,28175645.6987037
190,0.0
2,18, 1,18, 0,16, 0.00,60.00,Wednesday
141,28649111.18898881
190,0.0
2,18, 1,18, 0,17, 0.00,60.00,Wednesday
141,28890462.407234095
190,0.0
2,18, 1,18, 0,18, 0.00,60.00,Wednesday
141,28717912.25930305
190,0.0
2,18, 1,18, 0,19, 0.00,60.00,Wednesday
141,28636365.412628375
190,0.0
2,18, 1,18, 0,20, 0.00,60.00,Wednesday
141,28722826.51959309
190,0.0
2,18, 1,18, 0,21, 0.00,60.00,Wednesday
141,28784690.281624243
190,0.0
2,18, 1,18, 0,22, 0.00,60.00,Wednesday
141,28937964.69734498
190,0.0
2,18, 1,18, 0,23, 0.00,60.00,Wednesday
141,29049346.623706628
190,0.0
2,18, 1,18, 0,24, 0.00,60.00,Wednesday
141,29197981.786856756
190,0.0