Program Version,EnergyPlus, Version 24.2.0-94a887817b, YMD=2025.04.24 13:22
1,5,Environment Title[],Latitude[deg],Longitude[deg],Time Zone[],Elevation[m]
2,8,Day of Simulation[],Month[],Day of Month[],DST Indicator[1=yes 0=no],Hour[],StartMinute[],EndMinute[],DayType
3,5,Cumulative Day of Simulation[],Month[],Day of Month[],DST Indicator[1=yes 0=no],DayType  ! When Daily Report Variables Requested
4,2,Cumulative Days of Simulation[],Month[]  ! When Monthly Report Variables Requested
5,1,Cumulative Days of Simulation[] ! When Run Period Report Variables Requested
6,1,Calendar Year of Simulation[] ! When Annual Report Variables Requested
141,1,ZONE_0599100100017133 IDEAL LOADS AIR SYSTEM,Zone Ideal Loads Supply Air Total Heating Energy [J] !Hourly
190,1,ZONE_0599100100017133 IDEAL LOADS AIR SYSTEM,Zone Ideal Loads Supply Air Total Cooling Energy [J] !Hourly
End of Data Dictionary
1,RUN PERIOD 1,  51.96,   4.45,   1.00,  -4.50
2,1, 1, 1, 0, 1, 0.00,60.00,Sunday
141,29697752.41170775
190,0.0
2,1, 1, 1, 0, 2, 0.00,60.00,Sunday
141,30926662.530421723
190,0.0
2,1, 1, 1, 0, 3, 0.00,60.00,Sunday
141,30925364.188895058
190,0.0
2,1, 1, 1, 0, 4, 0.00,60.00,Sunday
141,31836210.693188325
190,0.0
2,1, 1, 1, 0, 5, 0.00,60.00,Sunday
141,32460324.467299297
190,0.0
2,1, 1, 1, 0, 6, 0.00,60.00,Sunday
141,32539418.634613086
190,0.0
2,1, 1, 1, 0, 7, 0.00,60.00,Sunday
141,32659625.977432314
190,0.0
2,1, 1, 1, 0, 8, 0.00,60.00,Sunday
141,32587624.26099454
190,0.0
2,1, 1, 1, 0, 9, 0.00,60.00,Sunday
141,32524509.916755527
190,0.0
2,1, 1, 1, 0,10, 0.00,60.00,Sunday
141,32242020.292853728
190,0.0
2,1, 1, 1, 0,11, 0.00,60.00,Sunday
141,31499263.607185453
190,0.0
2,1, 1, 1, 0,12, 0.00,60.00,Sunday
141,30290955.264481593
190,0.0
2,1, 1, 1, 0,13, 0.00,60.00,Sunday
141,29699694.760395117
190,0.0
2,1, 1, 1, 0,14, 0.00,60.00,Sunday
141,28880717.13052
190,0.0
2,1, 1, 1, 0,15, 0.00,60.00,Sunday
141,28312665.70139043
190,0.0
2,1, 1, 1, 0,16, 0.00,60.00,Sunday
141,28874647.65038369
190,0.0
2,1, 1, 1, 0,17, 0.00,60.00,Sunday
141,29581076.155074697
190,0.0
2,1, 1, 1, 0,18, 0.00,60.00,Sunday
141,29807563.227792
190,0.0
2,1, 1, 1, 0,19, 0.00,60.00,Sunday
141,30007233.881859686
190,0.0
2,1, 1, 1, 0,20, 0.00,60.00,Sunday
141,29973911.32805592
190,0.0
2,1, 1, 1, 0,21, 0.00,60.00,Sunday
141,29862583.867929563
190,0.0
2,1, 1, 1, 0,22, 0.00,60.00,Sunday
141,29944936.303022802
190,0.0
2,1, 1, 1, 0,23, 0.00,60.00,Sunday
141,29104262.1370556
190,0.0
2,1, 1, 1, 0,24, 0.00,60.00,Sunday
141,28482463.574769422
190,0.0
2,2, 1, 2, 0, 1, 0.00,60.00,Monday
141,28603423.71518972
190,0.0
2,2, 1, 2, 0, 2, 0.00,60.00,Monday
141,27758709.461186904
190,0.0
2,2, 1, 2, 0, 3, 0.00,60.00,Monday
141,27113441.797139212
190,0.0
2,2, 1, 2, 0, 4, 0.00,60.00,Monday
141,26461061.414401248
190,0.0
2,2, 1, 2, 0, 5, 0.00,60.00,Monday
141,25021196.792181276
190,0.0
2,2, 1, 2, 0, 6, 0.00,60.00,Monday
141,24345642.951353587
190,0.0
2,2, 1, 2, 0, 7, 0.00,60.00,Monday
141,23278463.19866163
190,0.0
2,2, 1, 2, 0, 8, 0.00,60.00,Monday
141,21976938.46110197
190,0.0
2,2, 1, 2, 0, 9, 0.00,60.00,Monday
141,22414336.149121314
190,0.0
2,2, 1, 2, 0,10, 0.00,60.00,Monday
141,23434538.88487236
190,0.0
2,2, 1, 2, 0,11, 0.00,60.00,Monday
141,24141598.406269677
190,0.0
2,2, 1, 2, 0,12, 0.00,60.00,Monday
141,23614737.91238779
190,0.0
2,2, 1, 2, 0,13, 0.00,60.00,Monday
141,23420768.6881812
190,0.0
2,2, 1, 2, 0,14, 0.00,60.00,Monday
141,24144339.643130478
190,0.0
2,2, 1, 2, 0,15, 0.00,60.00,Monday
141,24469699.153901774
190,0.0
2,2, 1, 2, 0,16, 0.00,60.00,Monday
141,25138267.03441807
190,0.0
2,2, 1, 2, 0,17, 0.00,60.00,Monday
141,25786775.842632353
190,0.0
2,2, 1, 2, 0,18, 0.00,60.00,Monday
141,25913159.25522106
190,0.0
2,2, 1, 2, 0,19, 0.00,60.00,Monday
141,26616801.604718804
190,0.0
2,2, 1, 2, 0,20, 0.00,60.00,Monday
141,27258832.80722957
190,0.0
2,2, 1, 2, 0,21, 0.00,60.00,Monday
141,27361999.459548317
190,0.0
2,2, 1, 2, 0,22, 0.00,60.00,Monday
141,27339176.37176779
190,0.0
2,2, 1, 2, 0,23, 0.00,60.00,Monday
141,27358648.32746698
190,0.0
2,2, 1, 2, 0,24, 0.00,60.00,Monday
141,27391127.721777715
190,0.0
2,3, 1, 3, 0, 1, 0.00,60.00,Tuesday
141,27445585.99551017
190,0.0
2,3, 1, 3, 0, 2, 0.00,60.00,Tuesday
141,27440391.731232423
190,0.0
2,3, 1, 3, 0, 3, 0.00,60.00,Tuesday
141,27415195.344663586
190,0.0
2,3, 1, 3, 0, 4, 0.00,60.00,Tuesday
141,27522303.440235965
190,0.0
2,3, 1, 3, 0, 5, 0.00,60.00,Tuesday
141,28334595.041000895
190,0.0
2,3, 1, 3, 0, 6, 0.00,60.00,Tuesday
141,28861358.7828788
190,0.0
2,3, 1, 3, 0, 7, 0.00,60.00,Tuesday
141,29115749.379231445
190,0.0
2,3, 1, 3, 0, 8, 0.00,60.00,Tuesday
141,29047891.84247712
190,0.0
2,3, 1, 3, 0, 9, 0.00,60.00,Tuesday
141,29711748.81880957
190,0.0
2,3, 1, 3, 0,10, 0.00,60.00,Tuesday
141,30033044.291046917
190,0.0
2,3, 1, 3, 0,11, 0.00,60.00,Tuesday
141,30117110.41631645
190,0.0
2,3, 1, 3, 0,12, 0.00,60.00,Tuesday
141,30320278.24097503
190,0.0
2,3, 1, 3, 0,13, 0.00,60.00,Tuesday
141,31337222.093121257
190,0.0
2,3, 1, 3, 0,14, 0.00,60.00,Tuesday
141,31895488.98291299
190,0.0
2,3, 1, 3, 0,15, 0.00,60.00,Tuesday
141,31773841.070589315
190,0.0
2,3, 1, 3, 0,16, 0.00,60.00,Tuesday
141,31663701.931774855
190,0.0
2,3, 1, 3, 0,17, 0.00,60.00,Tuesday
141,31697664.93187244
190,0.0
2,3, 1, 3, 0,18, 0.00,60.00,Tuesday
141,31780681.187888116
190,0.0
2,3, 1, 3, 0,19, 0.00,60.00,Tuesday
141,31617859.182953816
190,0.0
2,3, 1, 3, 0,20, 0.00,60.00,Tuesday
141,30820809.83440765
190,0.0
2,3, 1, 3, 0,21, 0.00,60.00,Tuesday
141,28666650.56124622
190,0.0
2,3, 1, 3, 0,22, 0.00,60.00,Tuesday
141,27511235.187309116
190,0.0
2,3, 1, 3, 0,23, 0.00,60.00,Tuesday
141,28335760.439676322
190,0.0
2,3, 1, 3, 0,24, 0.00,60.00,Tuesday
141,29742270.393149994
190,0.0
2,4, 1, 4, 0, 1, 0.00,60.00,Wednesday
141,30443640.155006777
190,0.0
2,4, 1, 4, 0, 2, 0.00,60.00,Wednesday
141,30333955.38463854
190,0.0
2,4, 1, 4, 0, 3, 0.00,60.00,Wednesday
141,30122245.929336492
190,0.0
2,4, 1, 4, 0, 4, 0.00,60.00,Wednesday
141,30358920.99449124
190,0.0
2,4, 1, 4, 0, 5, 0.00,60.00,Wednesday
141,31291154.49962192
190,0.0
2,4, 1, 4, 0, 6, 0.00,60.00,Wednesday
141,31043674.783937674
190,0.0
2,4, 1, 4, 0, 7, 0.00,60.00,Wednesday
141,30995248.128271725
190,0.0
2,4, 1, 4, 0, 8, 0.00,60.00,Wednesday
141,31365935.696951583
190,0.0
2,4, 1, 4, 0, 9, 0.00,60.00,Wednesday
141,31631846.376215313
190,0.0
2,4, 1, 4, 0,10, 0.00,60.00,Wednesday
141,31845199.465835035
190,0.0
2,4, 1, 4, 0,11, 0.00,60.00,Wednesday
141,30149370.66716608
190,0.0
2,4, 1, 4, 0,12, 0.00,60.00,Wednesday
141,27281850.93374059
190,0.0
2,4, 1, 4, 0,13, 0.00,60.00,Wednesday
141,26505341.89352552
190,0.0
2,4, 1, 4, 0,14, 0.00,60.00,Wednesday
141,26393259.558896933
190,0.0
2,4, 1, 4, 0,15, 0.00,60.00,Wednesday
141,26110098.041865587
190,0.0
2,4, 1, 4, 0,16, 0.00,60.00,Wednesday
141,27276239.373842772
190,0.0
2,4, 1, 4, 0,17, 0.00,60.00,Wednesday
141,29371255.30094026
190,0.0
2,4, 1, 4, 0,18, 0.00,60.00,Wednesday
141,31183409.574997023
190,0.0
2,4, 1, 4, 0,19, 0.00,60.00,Wednesday
141,33023350.88691741
190,0.0
2,4, 1, 4, 0,20, 0.00,60.00,Wednesday
141,33977115.89341548
190,0.0
2,4, 1, 4, 0,21, 0.00,60.00,Wednesday
141,34392281.504849605
190,0.0
2,4, 1, 4, 0,22, 0.00,60.00,Wednesday
141,35260710.24808259
190,0.0
2,4, 1, 4, 0,23, 0.00,60.00,Wednesday
141,34830979.5394171
190,0.0
2,4, 1, 4, 0,24, 0.00,60.00,Wednesday
141,34129587.201401494
190,0.0
2,5, 1, 5, 0, 1, 0.00,60.00,Thursday
141,34326803.59724581
190,0.0
2,5, 1, 5, 0, 2, 0.00,60.00,Thursday
141,33830594.95811556
190,0.0
2,5, 1, 5, 0, 3, 0.00,60.00,Thursday
141,33354195.013748147
190,0.0
2,5, 1, 5, 0, 4, 0.00,60.00,Thursday
141,33413447.45799504
190,0.0
2,5, 1, 5, 0, 5, 0.00,60.00,Thursday
141,32891254.208097935
190,0.0
2,5, 1, 5, 0, 6, 0.00,60.00,Thursday
141,32667609.336736824
190,0.0
2,5, 1, 5, 0, 7, 0.00,60.00,Thursday
141,32997502.90408875
190,0.0
2,5, 1, 5, 0, 8, 0.00,60.00,Thursday
141,33290334.82907039
190,0.0
2,5, 1, 5, 0, 9, 0.00,60.00,Thursday
141,33395796.818611614
190,0.0
2,5, 1, 5, 0,10, 0.00,60.00,Thursday
141,33948970.35580039
190,0.0
2,5, 1, 5, 0,11, 0.00,60.00,Thursday
141,33799958.078865945
190,0.0
2,5, 1, 5, 0,12, 0.00,60.00,Thursday
141,32567792.86105335
190,0.0
2,5, 1, 5, 0,13, 0.00,60.00,Thursday
141,32131634.055420537
190,0.0
2,5, 1, 5, 0,14, 0.00,60.00,Thursday
141,31244132.509305045
190,0.0
2,5, 1, 5, 0,15, 0.00,60.00,Thursday
141,30537819.258998178
190,0.0
2,5, 1, 5, 0,16, 0.00,60.00,Thursday
141,31101602.90412881
190,0.0
2,5, 1, 5, 0,17, 0.00,60.00,Thursday
141,30950630.283686645
190,0.0
2,5, 1, 5, 0,18, 0.00,60.00,Thursday
141,30562598.49091336
190,0.0
2,5, 1, 5, 0,19, 0.00,60.00,Thursday
141,30768804.906609368
190,0.0
2,5, 1, 5, 0,20, 0.00,60.00,Thursday
141,30721309.08300852
190,0.0
2,5, 1, 5, 0,21, 0.00,60.00,Thursday
141,30589373.49871512
190,0.0
2,5, 1, 5, 0,22, 0.00,60.00,Thursday
141,30616009.217932437
190,0.0
2,5, 1, 5, 0,23, 0.00,60.00,Thursday
141,30805728.248452134
190,0.0
2,5, 1, 5, 0,24, 0.00,60.00,Thursday
141,31014857.978637684
190,0.0
2,6, 1, 6, 0, 1, 0.00,60.00,Friday
141,31158265.24303571
190,0.0
2,6, 1, 6, 0, 2, 0.00,60.00,Friday
141,31298036.65812853
190,0.0
2,6, 1, 6, 0, 3, 0.00,60.00,Friday
141,32128660.437948547
190,0.0
2,6, 1, 6, 0, 4, 0.00,60.00,Friday
141,32935056.75617877
190,0.0
2,6, 1, 6, 0, 5, 0.00,60.00,Friday
141,33364669.01436389
190,0.0
2,6, 1, 6, 0, 6, 0.00,60.00,Friday
141,33884703.29240019
190,0.0
2,6, 1, 6, 0, 7, 0.00,60.00,Friday
141,34644759.96325575
190,0.0
2,6, 1, 6, 0, 8, 0.00,60.00,Friday
141,35364060.08967561
190,0.0
2,6, 1, 6, 0, 9, 0.00,60.00,Friday
141,36226443.835902356
190,0.0
2,6, 1, 6, 0,10, 0.00,60.00,Friday
141,36744257.214625984
190,0.0
2,6, 1, 6, 0,11, 0.00,60.00,Friday
141,36195781.07328881
190,0.0
2,6, 1, 6, 0,12, 0.00,60.00,Friday
141,35329822.958832435
190,0.0
2,6, 1, 6, 0,13, 0.00,60.00,Friday
141,34925955.958923824
190,0.0
2,6, 1, 6, 0,14, 0.00,60.00,Friday
141,34769872.89436452
190,0.0
2,6, 1, 6, 0,15, 0.00,60.00,Friday
141,34544552.61664708
190,0.0
2,6, 1, 6, 0,16, 0.00,60.00,Friday
141,34003148.5753477
190,0.0
2,6, 1, 6, 0,17, 0.00,60.00,Friday
141,33441600.483786292
190,0.0
2,6, 1, 6, 0,18, 0.00,60.00,Friday
141,33177511.76813551
190,0.0
2,6, 1, 6, 0,19, 0.00,60.00,Friday
141,32866466.214495204
190,0.0
2,6, 1, 6, 0,20, 0.00,60.00,Friday
141,32098192.693084225
190,0.0
2,6, 1, 6, 0,21, 0.00,60.00,Friday
141,30165333.026145462
190,0.0
2,6, 1, 6, 0,22, 0.00,60.00,Friday
141,27850693.799226582
190,0.0
2,6, 1, 6, 0,23, 0.00,60.00,Friday
141,26819902.234834146
190,0.0
2,6, 1, 6, 0,24, 0.00,60.00,Friday
141,27055809.215455312
190,0.0
2,7, 1, 7, 0, 1, 0.00,60.00,Saturday
141,28901736.52407094
190,0.0
2,7, 1, 7, 0, 2, 0.00,60.00,Saturday
141,30741506.397658233
190,0.0
2,7, 1, 7, 0, 3, 0.00,60.00,Saturday
141,30486496.345928933
190,0.0
2,7, 1, 7, 0, 4, 0.00,60.00,Saturday
141,30638389.028336354
190,0.0
2,7, 1, 7, 0, 5, 0.00,60.00,Saturday
141,31895219.309562203
190,0.0
2,7, 1, 7, 0, 6, 0.00,60.00,Saturday
141,32878973.343085106
190,0.0
2,7, 1, 7, 0, 7, 0.00,60.00,Saturday
141,33455949.148510057
190,0.0
2,7, 1, 7, 0, 8, 0.00,60.00,Saturday
141,33740211.081532374
190,0.0
2,7, 1, 7, 0, 9, 0.00,60.00,Saturday
141,33038454.23013602
190,0.0
2,7, 1, 7, 0,10, 0.00,60.00,Saturday
141,32408927.52667404
190,0.0
2,7, 1, 7, 0,11, 0.00,60.00,Saturday
141,30562711.055555172
190,0.0
2,7, 1, 7, 0,12, 0.00,60.00,Saturday
141,28702802.896746233
190,0.0
2,7, 1, 7, 0,13, 0.00,60.00,Saturday
141,27355914.01498329
190,0.0
2,7, 1, 7, 0,14, 0.00,60.00,Saturday
141,26688136.171674773
190,0.0
2,7, 1, 7, 0,15, 0.00,60.00,Saturday
141,27011482.364734422
190,0.0
2,7, 1, 7, 0,16, 0.00,60.00,Saturday
141,27667584.97201592
190,0.0
2,7, 1, 7, 0,17, 0.00,60.00,Saturday
141,28220794.083119094
190,0.0
2,7, 1, 7, 0,18, 0.00,60.00,Saturday
141,29155098.552118983
190,0.0
2,7, 1, 7, 0,19, 0.00,60.00,Saturday
141,30025637.202223346
190,0.0
2,7, 1, 7, 0,20, 0.00,60.00,Saturday
141,30860033.865426183
190,0.0
2,7, 1, 7, 0,21, 0.00,60.00,Saturday
141,31453492.41485299
190,0.0
2,7, 1, 7, 0,22, 0.00,60.00,Saturday
141,31481989.560156506
190,0.0
2,7, 1, 7, 0,23, 0.00,60.00,Saturday
141,31586117.948884904
190,0.0
2,7, 1, 7, 0,24, 0.00,60.00,Saturday
141,31528097.689013608
190,0.0
2,8, 1, 8, 0, 1, 0.00,60.00,Sunday
141,30972329.318870056
190,0.0
2,8, 1, 8, 0, 2, 0.00,60.00,Sunday
141,30324194.91905872
190,0.0
2,8, 1, 8, 0, 3, 0.00,60.00,Sunday
141,29738657.328285836
190,0.0
2,8, 1, 8, 0, 4, 0.00,60.00,Sunday
141,28905095.475947887
190,0.0
2,8, 1, 8, 0, 5, 0.00,60.00,Sunday
141,27894109.25608533
190,0.0
2,8, 1, 8, 0, 6, 0.00,60.00,Sunday
141,27138606.91857315
190,0.0
2,8, 1, 8, 0, 7, 0.00,60.00,Sunday
141,26565885.29363447
190,0.0
2,8, 1, 8, 0, 8, 0.00,60.00,Sunday
141,26078171.16540027
190,0.0
2,8, 1, 8, 0, 9, 0.00,60.00,Sunday
141,25569732.551280808
190,0.0
2,8, 1, 8, 0,10, 0.00,60.00,Sunday
141,25416798.67367824
190,0.0
2,8, 1, 8, 0,11, 0.00,60.00,Sunday
141,25304736.47483367
190,0.0
2,8, 1, 8, 0,12, 0.00,60.00,Sunday
141,25427792.013516154
190,0.0
2,8, 1, 8, 0,13, 0.00,60.00,Sunday
141,25350017.727999814
190,0.0
2,8, 1, 8, 0,14, 0.00,60.00,Sunday
141,25492960.146858353
190,0.0
2,8, 1, 8, 0,15, 0.00,60.00,Sunday
141,26644727.24023004
190,0.0
2,8, 1, 8, 0,16, 0.00,60.00,Sunday
141,27480442.431194566
190,0.0
2,8, 1, 8, 0,17, 0.00,60.00,Sunday
141,27541067.67631205
190,0.0
2,8, 1, 8, 0,18, 0.00,60.00,Sunday
141,27921327.909524743
190,0.0
2,8, 1, 8, 0,19, 0.00,60.00,Sunday
141,27744113.1689889
190,0.0
2,8, 1, 8, 0,20, 0.00,60.00,Sunday
141,27078327.534103073
190,0.0
2,8, 1, 8, 0,21, 0.00,60.00,Sunday
141,26604839.264782906
190,0.0
2,8, 1, 8, 0,22, 0.00,60.00,Sunday
141,26763316.447593372
190,0.0
2,8, 1, 8, 0,23, 0.00,60.00,Sunday
141,26913548.832287252
190,0.0
2,8, 1, 8, 0,24, 0.00,60.00,Sunday
141,27338757.732513756
190,0.0
2,9, 1, 9, 0, 1, 0.00,60.00,Monday
141,27436008.936403655
190,0.0
2,9, 1, 9, 0, 2, 0.00,60.00,Monday
141,27502239.473290134
190,0.0
2,9, 1, 9, 0, 3, 0.00,60.00,Monday
141,27422848.89303676
190,0.0
2,9, 1, 9, 0, 4, 0.00,60.00,Monday
141,27192893.7543907
190,0.0
2,9, 1, 9, 0, 5, 0.00,60.00,Monday
141,26652887.077587146
190,0.0
2,9, 1, 9, 0, 6, 0.00,60.00,Monday
141,26105947.35261593
190,0.0
2,9, 1, 9, 0, 7, 0.00,60.00,Monday
141,25716278.615619753
190,0.0
2,9, 1, 9, 0, 8, 0.00,60.00,Monday
141,25513319.350520983
190,0.0
2,9, 1, 9, 0, 9, 0.00,60.00,Monday
141,24922843.559777923
190,0.0
2,9, 1, 9, 0,10, 0.00,60.00,Monday
141,23460055.353844263
190,0.0
2,9, 1, 9, 0,11, 0.00,60.00,Monday
141,22215710.42916856
190,0.0
2,9, 1, 9, 0,12, 0.00,60.00,Monday
141,21534725.60583588
190,0.0
2,9, 1, 9, 0,13, 0.00,60.00,Monday
141,20975672.194881305
190,0.0
2,9, 1, 9, 0,14, 0.00,60.00,Monday
141,20573842.96077307
190,0.0
2,9, 1, 9, 0,15, 0.00,60.00,Monday
141,20448041.31952786
190,0.0
2,9, 1, 9, 0,16, 0.00,60.00,Monday
141,20765125.456344854
190,0.0
2,9, 1, 9, 0,17, 0.00,60.00,Monday
141,21790174.707399454
190,0.0
2,9, 1, 9, 0,18, 0.00,60.00,Monday
141,22758480.647768565
190,0.0
2,9, 1, 9, 0,19, 0.00,60.00,Monday
141,22700924.49616319
190,0.0
2,9, 1, 9, 0,20, 0.00,60.00,Monday
141,21392987.03420893
190,0.0
2,9, 1, 9, 0,21, 0.00,60.00,Monday
141,20071463.468075503
190,0.0
2,9, 1, 9, 0,22, 0.00,60.00,Monday
141,19269214.72889708
190,0.0
2,9, 1, 9, 0,23, 0.00,60.00,Monday
141,19136118.67998493
190,0.0
2,9, 1, 9, 0,24, 0.00,60.00,Monday
141,19241561.58491254
190,0.0
2,10, 1,10, 0, 1, 0.00,60.00,Tuesday
141,19632937.377582047
190,0.0
2,10, 1,10, 0, 2, 0.00,60.00,Tuesday
141,19909546.13059397
190,0.0
2,10, 1,10, 0, 3, 0.00,60.00,Tuesday
141,19981426.350633115
190,0.0
2,10, 1,10, 0, 4, 0.00,60.00,Tuesday
141,20422883.29285793
190,0.0
2,10, 1,10, 0, 5, 0.00,60.00,Tuesday
141,20607075.61818481
190,0.0
2,10, 1,10, 0, 6, 0.00,60.00,Tuesday
141,20692025.204407565
190,0.0
2,10, 1,10, 0, 7, 0.00,60.00,Tuesday
141,20788390.417310853
190,0.0
2,10, 1,10, 0, 8, 0.00,60.00,Tuesday
141,20688017.944825776
190,0.0
2,10, 1,10, 0, 9, 0.00,60.00,Tuesday
141,20526763.019362874
190,0.0
2,10, 1,10, 0,10, 0.00,60.00,Tuesday
141,20291517.68972463
190,0.0
2,10, 1,10, 0,11, 0.00,60.00,Tuesday
141,19926303.624518476
190,0.0
2,10, 1,10, 0,12, 0.00,60.00,Tuesday
141,19501627.72179042
190,0.0
2,10, 1,10, 0,13, 0.00,60.00,Tuesday
141,19473923.96880655
190,0.0
2,10, 1,10, 0,14, 0.00,60.00,Tuesday
141,21255523.052030563
190,0.0
2,10, 1,10, 0,15, 0.00,60.00,Tuesday
141,22704848.98881071
190,0.0
2,10, 1,10, 0,16, 0.00,60.00,Tuesday
141,23615461.811447576
190,0.0
2,10, 1,10, 0,17, 0.00,60.00,Tuesday
141,24550038.700878046
190,0.0
2,10, 1,10, 0,18, 0.00,60.00,Tuesday
141,25746233.878202762
190,0.0
2,10, 1,10, 0,19, 0.00,60.00,Tuesday
141,26397229.452858537
190,0.0
2,10, 1,10, 0,20, 0.00,60.00,Tuesday
141,26892786.501708575
190,0.0
2,10, 1,10, 0,21, 0.00,60.00,Tuesday
141,27652432.35202153
190,0.0
2,10, 1,10, 0,22, 0.00,60.00,Tuesday
141,28097298.332778126
190,0.0
2,10, 1,10, 0,23, 0.00,60.00,Tuesday
141,27866363.661140047
190,0.0
2,10, 1,10, 0,24, 0.00,60.00,Tuesday
141,28364181.356917925
190,0.0
2,11, 1,11, 0, 1, 0.00,60.00,Wednesday
141,28459569.89116878
190,0.0
2,11, 1,11, 0, 2, 0.00,60.00,Wednesday
141,28548923.50251535
190,0.0
2,11, 1,11, 0, 3, 0.00,60.00,Wednesday
141,28819800.995450564
190,0.0
2,11, 1,11, 0, 4, 0.00,60.00,Wednesday
141,28459638.978324722
190,0.0
2,11, 1,11, 0, 5, 0.00,60.00,Wednesday
141,28197810.09028946
190,0.0
2,11, 1,11, 0, 6, 0.00,60.00,Wednesday
141,28093769.319727942
190,0.0
2,11, 1,11, 0, 7, 0.00,60.00,Wednesday
141,28184502.734183855
190,0.0
2,11, 1,11, 0, 8, 0.00,60.00,Wednesday
141,28292186.65729342
190,0.0
2,11, 1,11, 0, 9, 0.00,60.00,Wednesday
141,28204945.544673424
190,0.0
2,11, 1,11, 0,10, 0.00,60.00,Wednesday
141,27982752.84697758
190,0.0
2,11, 1,11, 0,11, 0.00,60.00,Wednesday
141,27614175.05355057
190,0.0
2,11, 1,11, 0,12, 0.00,60.00,Wednesday
141,27018629.041634627
190,0.0
2,11, 1,11, 0,13, 0.00,60.00,Wednesday
141,26551760.53259644
190,0.0
2,11, 1,11, 0,14, 0.00,60.00,Wednesday
141,26338524.074326433
190,0.0
2,11, 1,11, 0,15, 0.00,60.00,Wednesday
141,26262837.121045694
190,0.0
2,11, 1,11, 0,16, 0.00,60.00,Wednesday
141,26249978.8517073
190,0.0
2,11, 1,11, 0,17, 0.00,60.00,Wednesday
141,25908260.45916437
190,0.0
2,11, 1,11, 0,18, 0.00,60.00,Wednesday
141,25578596.542433754
190,0.0
2,11, 1,11, 0,19, 0.00,60.00,Wednesday
141,25340096.90875898
190,0.0
2,11, 1,11, 0,20, 0.00,60.00,Wednesday
141,25285799.781231873
190,0.0
2,11, 1,11, 0,21, 0.00,60.00,Wednesday
141,25245438.511465922
190,0.0
2,11, 1,11, 0,22, 0.00,60.00,Wednesday
141,24591542.340149786
190,0.0
2,11, 1,11, 0,23, 0.00,60.00,Wednesday
141,24081986.46018958
190,0.0
2,11, 1,11, 0,24, 0.00,60.00,Wednesday
141,24092935.2521876
190,0.0
2,12, 1,12, 0, 1, 0.00,60.00,Thursday
141,24300476.20357876
190,0.0
2,12, 1,12, 0, 2, 0.00,60.00,Thursday
141,24312839.34911325
190,0.0
2,12, 1,12, 0, 3, 0.00,60.00,Thursday
141,24150785.25401956
190,0.0
2,12, 1,12, 0, 4, 0.00,60.00,Thursday
141,24158854.42577449
190,0.0
2,12, 1,12, 0, 5, 0.00,60.00,Thursday
141,24366008.298710283
190,0.0
2,12, 1,12, 0, 6, 0.00,60.00,Thursday
141,24871623.61557593
190,0.0
2,12, 1,12, 0, 7, 0.00,60.00,Thursday
141,25142273.70235787
190,0.0
2,12, 1,12, 0, 8, 0.00,60.00,Thursday
141,25204049.36791464
190,0.0
2,12, 1,12, 0, 9, 0.00,60.00,Thursday
141,24836225.490588002
190,0.0
2,12, 1,12, 0,10, 0.00,60.00,Thursday
141,24043332.055625863
190,0.0
2,12, 1,12, 0,11, 0.00,60.00,Thursday
141,23438409.335133612
190,0.0
2,12, 1,12, 0,12, 0.00,60.00,Thursday
141,23090588.938307177
190,0.0
2,12, 1,12, 0,13, 0.00,60.00,Thursday
141,22636457.652745716
190,0.0
2,12, 1,12, 0,14, 0.00,60.00,Thursday
141,22146959.16140005
190,0.0
2,12, 1,12, 0,15, 0.00,60.00,Thursday
141,22124383.427832447
190,0.0
2,12, 1,12, 0,16, 0.00,60.00,Thursday
141,22313377.026105735
190,0.0
2,12, 1,12, 0,17, 0.00,60.00,Thursday
141,23256870.582214065
190,0.0
2,12, 1,12, 0,18, 0.00,60.00,Thursday
141,23806739.37331758
190,0.0
2,12, 1,12, 0,19, 0.00,60.00,Thursday
141,23577818.330213457
190,0.0
2,12, 1,12, 0,20, 0.00,60.00,Thursday
141,23048168.88108597
190,0.0
2,12, 1,12, 0,21, 0.00,60.00,Thursday
141,22830192.789997596
190,0.0
2,12, 1,12, 0,22, 0.00,60.00,Thursday
141,22471991.389955837
190,0.0
2,12, 1,12, 0,23, 0.00,60.00,Thursday
141,22336862.81597884
190,0.0
2,12, 1,12, 0,24, 0.00,60.00,Thursday
141,22361997.50862842
190,0.0
2,13, 1,13, 0, 1, 0.00,60.00,Friday
141,22130576.12571465
190,0.0
2,13, 1,13, 0, 2, 0.00,60.00,Friday
141,21919868.774245925
190,0.0
2,13, 1,13, 0, 3, 0.00,60.00,Friday
141,21605411.99139324
190,0.0
2,13, 1,13, 0, 4, 0.00,60.00,Friday
141,21417068.695905436
190,0.0
2,13, 1,13, 0, 5, 0.00,60.00,Friday
141,21404277.847584866
190,0.0
2,13, 1,13, 0, 6, 0.00,60.00,Friday
141,21473915.26445415
190,0.0
2,13, 1,13, 0, 7, 0.00,60.00,Friday
141,21679730.260478448
190,0.0
2,13, 1,13, 0, 8, 0.00,60.00,Friday
141,21700866.536957737
190,0.0
2,13, 1,13, 0, 9, 0.00,60.00,Friday
141,21473336.382157553
190,0.0
2,13, 1,13, 0,10, 0.00,60.00,Friday
141,22074236.075316317
190,0.0
2,13, 1,13, 0,11, 0.00,60.00,Friday
141,22746362.54337382
190,0.0
2,13, 1,13, 0,12, 0.00,60.00,Friday
141,22799578.986394063
190,0.0
2,13, 1,13, 0,13, 0.00,60.00,Friday
141,22888747.14723146
190,0.0
2,13, 1,13, 0,14, 0.00,60.00,Friday
141,23305682.04908912
190,0.0
2,13, 1,13, 0,15, 0.00,60.00,Friday
141,23534540.751280088
190,0.0
2,13, 1,13, 0,16, 0.00,60.00,Friday
141,23456140.231868643
190,0.0
2,13, 1,13, 0,17, 0.00,60.00,Friday
141,23317779.891760066
190,0.0
2,13, 1,13, 0,18, 0.00,60.00,Friday
141,23253204.593394578
190,0.0
2,13, 1,13, 0,19, 0.00,60.00,Friday
141,23645687.010802668
190,0.0
2,13, 1,13, 0,20, 0.00,60.00,Friday
141,24340814.032283753
190,0.0
2,13, 1,13, 0,21, 0.00,60.00,Friday
141,24962670.477221552
190,0.0
2,13, 1,13, 0,22, 0.00,60.00,Friday
141,25357558.0993338
190,0.0
2,13, 1,13, 0,23, 0.00,60.00,Friday
141,25219709.179711215
190,0.0
2,13, 1,13, 0,24, 0.00,60.00,Friday
141,26834129.83777654
190,0.0
2,14, 1,14, 0, 1, 0.00,60.00,Saturday
141,27945740.86398897
190,0.0
2,14, 1,14, 0, 2, 0.00,60.00,Saturday
141,27487202.706506055
190,0.0
2,14, 1,14, 0, 3, 0.00,60.00,Saturday
141,27583163.40216644
190,0.0
2,14, 1,14, 0, 4, 0.00,60.00,Saturday
141,27410247.34750986
190,0.0
2,14, 1,14, 0, 5, 0.00,60.00,Saturday
141,27360153.451372977
190,0.0
2,14, 1,14, 0, 6, 0.00,60.00,Saturday
141,28529612.0452649
190,0.0
2,14, 1,14, 0, 7, 0.00,60.00,Saturday
141,29403321.217148006
190,0.0
2,14, 1,14, 0, 8, 0.00,60.00,Saturday
141,29101847.24544532
190,0.0
2,14, 1,14, 0, 9, 0.00,60.00,Saturday
141,29552956.015768483
190,0.0
2,14, 1,14, 0,10, 0.00,60.00,Saturday
141,30164491.412244376
190,0.0
2,14, 1,14, 0,11, 0.00,60.00,Saturday
141,29880036.60218966
190,0.0
2,14, 1,14, 0,12, 0.00,60.00,Saturday
141,29465294.96393254
190,0.0
2,14, 1,14, 0,13, 0.00,60.00,Saturday
141,28762057.38245155
190,0.0
2,14, 1,14, 0,14, 0.00,60.00,Saturday
141,27362753.60873474
190,0.0
2,14, 1,14, 0,15, 0.00,60.00,Saturday
141,27167367.85944623
190,0.0
2,14, 1,14, 0,16, 0.00,60.00,Saturday
141,27457406.25232232
190,0.0
2,14, 1,14, 0,17, 0.00,60.00,Saturday
141,27990367.94857008
190,0.0
2,14, 1,14, 0,18, 0.00,60.00,Saturday
141,28993937.031743303
190,0.0
2,14, 1,14, 0,19, 0.00,60.00,Saturday
141,28992728.60217476
190,0.0
2,14, 1,14, 0,20, 0.00,60.00,Saturday
141,29105043.714713622
190,0.0
2,14, 1,14, 0,21, 0.00,60.00,Saturday
141,28886869.129475117
190,0.0
2,14, 1,14, 0,22, 0.00,60.00,Saturday
141,28505804.42016586
190,0.0
2,14, 1,14, 0,23, 0.00,60.00,Saturday
141,28224131.977004994
190,0.0
2,14, 1,14, 0,24, 0.00,60.00,Saturday
141,28091078.16329184
190,0.0
2,15, 1,15, 0, 1, 0.00,60.00,Sunday
141,27446747.077417016
190,0.0
2,15, 1,15, 0, 2, 0.00,60.00,Sunday
141,25954624.2164684
190,0.0
2,15, 1,15, 0, 3, 0.00,60.00,Sunday
141,25219370.786094494
190,0.0
2,15, 1,15, 0, 4, 0.00,60.00,Sunday
141,24698843.66951149
190,0.0
2,15, 1,15, 0, 5, 0.00,60.00,Sunday
141,23757400.147027522
190,0.0
2,15, 1,15, 0, 6, 0.00,60.00,Sunday
141,22768532.855128277
190,0.0
2,15, 1,15, 0, 7, 0.00,60.00,Sunday
141,21794106.075967908
190,0.0
2,15, 1,15, 0, 8, 0.00,60.00,Sunday
141,21148385.927825358
190,0.0
2,15, 1,15, 0, 9, 0.00,60.00,Sunday
141,20658850.527902234
190,0.0
2,15, 1,15, 0,10, 0.00,60.00,Sunday
141,20588498.004658144
190,0.0
2,15, 1,15, 0,11, 0.00,60.00,Sunday
141,21103388.02506673
190,0.0
2,15, 1,15, 0,12, 0.00,60.00,Sunday
141,22432462.45723459
190,0.0
2,15, 1,15, 0,13, 0.00,60.00,Sunday
141,23416800.850877453
190,0.0
2,15, 1,15, 0,14, 0.00,60.00,Sunday
141,23827738.899758074
190,0.0
2,15, 1,15, 0,15, 0.00,60.00,Sunday
141,23995144.32200522
190,0.0
2,15, 1,15, 0,16, 0.00,60.00,Sunday
141,23677615.38645936
190,0.0
2,15, 1,15, 0,17, 0.00,60.00,Sunday
141,23462648.24482937
190,0.0
2,15, 1,15, 0,18, 0.00,60.00,Sunday
141,23555703.024783716
190,0.0
2,15, 1,15, 0,19, 0.00,60.00,Sunday
141,23787015.203043893
190,0.0
2,15, 1,15, 0,20, 0.00,60.00,Sunday
141,24082846.53781003
190,0.0
2,15, 1,15, 0,21, 0.00,60.00,Sunday
141,24701679.474032365
190,0.0
2,15, 1,15, 0,22, 0.00,60.00,Sunday
141,24983167.984794237
190,0.0
2,15, 1,15, 0,23, 0.00,60.00,Sunday
141,25023120.717669386
190,0.0
2,15, 1,15, 0,24, 0.00,60.00,Sunday
141,25182947.028864134
190,0.0
2,16, 1,16, 0, 1, 0.00,60.00,Monday
141,25747549.996070657
190,0.0
2,16, 1,16, 0, 2, 0.00,60.00,Monday
141,26276034.468280524
190,0.0
2,16, 1,16, 0, 3, 0.00,60.00,Monday
141,26573811.924844135
190,0.0
2,16, 1,16, 0, 4, 0.00,60.00,Monday
141,26791399.511798367
190,0.0
2,16, 1,16, 0, 5, 0.00,60.00,Monday
141,27115721.259108663
190,0.0
2,16, 1,16, 0, 6, 0.00,60.00,Monday
141,27394009.231379278
190,0.0
2,16, 1,16, 0, 7, 0.00,60.00,Monday
141,27964128.773800436
190,0.0
2,16, 1,16, 0, 8, 0.00,60.00,Monday
141,28498726.441735428
190,0.0
2,16, 1,16, 0, 9, 0.00,60.00,Monday
141,28724610.227480445
190,0.0
2,16, 1,16, 0,10, 0.00,60.00,Monday
141,28724253.58204137
190,0.0
2,16, 1,16, 0,11, 0.00,60.00,Monday
141,27520829.155762434
190,0.0
2,16, 1,16, 0,12, 0.00,60.00,Monday
141,26456878.017831005
190,0.0
2,16, 1,16, 0,13, 0.00,60.00,Monday
141,25629912.739293393
190,0.0
2,16, 1,16, 0,14, 0.00,60.00,Monday
141,25082838.856098
190,0.0
2,16, 1,16, 0,15, 0.00,60.00,Monday
141,25026320.371922635
190,0.0
2,16, 1,16, 0,16, 0.00,60.00,Monday
141,25271414.606487002
190,0.0
2,16, 1,16, 0,17, 0.00,60.00,Monday
141,25864170.47817666
190,0.0
2,16, 1,16, 0,18, 0.00,60.00,Monday
141,26993740.128495574
190,0.0
2,16, 1,16, 0,19, 0.00,60.00,Monday
141,28178327.533373248
190,0.0
2,16, 1,16, 0,20, 0.00,60.00,Monday
141,28772453.30889763
190,0.0
2,16, 1,16, 0,21, 0.00,60.00,Monday
141,29237690.48793456
190,0.0
2,16, 1,16, 0,22, 0.00,60.00,Monday
141,29657818.75319108
190,0.0
2,16, 1,16, 0,23, 0.00,60.00,Monday
141,30299060.222620957
190,0.0
2,16, 1,16, 0,24, 0.00,60.00,Monday
141,30428085.07564114
190,0.0
2,17, 1,17, 0, 1, 0.00,60.00,Tuesday
141,30606405.657852255
190,0.0
2,17, 1,17, 0, 2, 0.00,60.00,Tuesday
141,31375990.47456826
190,0.0
2,17, 1,17, 0, 3, 0.00,60.00,Tuesday
141,32009871.067643367
190,0.0
2,17, 1,17, 0, 4, 0.00,60.00,Tuesday
141,32543578.632994354
190,0.0
2,17, 1,17, 0, 5, 0.00,60.00,Tuesday
141,33140908.614180416
190,0.0
2,17, 1,17, 0, 6, 0.00,60.00,Tuesday
141,33740598.00593252
190,0.0
2,17, 1,17, 0, 7, 0.00,60.00,Tuesday
141,34083281.160098925
190,0.0
2,17, 1,17, 0, 8, 0.00,60.00,Tuesday
141,34247046.47290773
190,0.0
2,17, 1,17, 0, 9, 0.00,60.00,Tuesday
141,34246599.453639604
190,0.0
2,17, 1,17, 0,10, 0.00,60.00,Tuesday
141,32834107.052617624
190,0.0
2,17, 1,17, 0,11, 0.00,60.00,Tuesday
141,30770313.07358279
190,0.0
2,17, 1,17, 0,12, 0.00,60.00,Tuesday
141,28987199.09357128
190,0.0
2,17, 1,17, 0,13, 0.00,60.00,Tuesday
141,27939964.738479953
190,0.0
2,17, 1,17, 0,14, 0.00,60.00,Tuesday
141,27701967.027540255
190,0.0
2,17, 1,17, 0,15, 0.00,60.00,Tuesday
141,28029843.952602245
190,0.0
2,17, 1,17, 0,16, 0.00,60.00,Tuesday
141,29020864.493184622
190,0.0
2,17, 1,17, 0,17, 0.00,60.00,Tuesday
141,29815656.111001328
190,0.0
2,17, 1,17, 0,18, 0.00,60.00,Tuesday
141,29912526.299312647
190,0.0
2,17, 1,17, 0,19, 0.00,60.00,Tuesday
141,29853254.78239936
190,0.0
2,17, 1,17, 0,20, 0.00,60.00,Tuesday
141,30034223.21451125
190,0.0
2,17, 1,17, 0,21, 0.00,60.00,Tuesday
141,30335261.303215917
190,0.0
2,17, 1,17, 0,22, 0.00,60.00,Tuesday
141,30378618.324722923
190,0.0
2,17, 1,17, 0,23, 0.00,60.00,Tuesday
141,30408577.557992913
190,0.0
2,17, 1,17, 0,24, 0.00,60.00,Tuesday
141,30815590.981780145
190,0.0
2,18, 1,18, 0, 1, 0.00,60.00,Wednesday
141,31065421.071481153
190,0.0
2,18, 1,18, 0, 2, 0.00,60.00,Wednesday
141,31238586.578507602
190,0.0
2,18, 1,18, 0, 3, 0.00,60.00,Wednesday
141,31276529.305558007
190,0.0
2,18, 1,18, 0, 4, 0.00,60.00,Wednesday
141,31218548.96767196
190,0.0
2,18, 1,18, 0, 5, 0.00,60.00,Wednesday
141,31223746.109659612
190,0.0
2,18, 1,18, 0, 6, 0.00,60.00,Wednesday
141,31313285.893132266
190,0.0
2,18, 1,18, 0, 7, 0.00,60.00,Wednesday
141,31972855.95662296
190,0.0
2,18, 1,18, 0, 8, 0.00,60.00,Wednesday
141,32154073.216933817
190,0.0
2,18, 1,18, 0, 9, 0.00,60.00,Wednesday
141,32242203.817446876
190,0.0
2,18, 1,18, 0,10, 0.00,60.00,Wednesday
141,32180481.796757255
190,0.0
2,18, 1,18, 0,11, 0.00,60.00,Wednesday
141,31501713.891616806
190,0.0
2,18, 1,18, 0,12, 0.00,60.00,Wednesday
141,30980678.14784477
190,0.0
2,18, 1,18, 0,13, 0.00,60.00,Wednesday
141,31203731.059344295
190,0.0
2,18, 1,18, 0,14, 0.00,60.00,Wednesday
141,31702118.94835738
190,0.0
2,18, 1,18, 0,15, 0.00,60.00,Wednesday
141,31972981.724909045
190,0.0
2,18, 1,18, 0,16, 0.00,60.00,Wednesday
141,32553798.120638788
190,0.0
2,18, 1,18, 0,17, 0.00,60.00,Wednesday
141,32847420.894758902
190,0.0
2,18, 1,18, 0,18, 0.00,60.00,Wednesday
141,32629833.889843844
190,0.0
2,18, 1,18, 0,19, 0.00,60.00,Wednesday
141,32524806.1346102
190,0.0
2,18, 1,18, 0,20, 0.00,60.00,Wednesday
141,32627769.087379873
190,0.0
2,18, 1,18, 0,21, 0.00,60.00,Wednesday
141,32701137.35407342
190,0.0
2,18, 1,18, 0,22, 0.00,60.00,Wednesday
141,32888229.568869717
190,0.0
2,18, 1,18, 0,23, 0.00,60.00,Wednesday
141,33024415.940650877
190,0.0
2,18, 1,18, 0,24, 0.00,60.00,Wednesday
141,33207248.02936875
190,0.0
2,19, 1,19, 0, 1, 0.00,60.00,Thursday