Program Version,EnergyPlus, Version 24.2.0-94a887817b, YMD=2025.04.24 13:21
1,5,Environment Title[],Latitude[deg],Longitude[deg],Time Zone[],Elevation[m]
2,8,Day of Simulation[],Month[],Day of Month[],DST Indicator[1=yes 0=no],Hour[],StartMinute[],EndMinute[],DayType
3,5,Cumulative Day of Simulation[],Month[],Day of Month[],DST Indicator[1=yes 0=no],DayType  ! When Daily Report Variables Requested
4,2,Cumulative Days of Simulation[],Month[]  ! When Monthly Report Variables Requested
5,1,Cumulative Days of Simulation[] ! When Run Period Report Variables Requested
6,1,Calendar Year of Simulation[] ! When Annual Report Variables Requested
141,1,ZONE_0599100000400852 IDEAL LOADS AIR SYSTEM,Zone Ideal Loads Supply Air Total Heating Energy [J] !Hourly
190,1,ZONE_0599100000400852 IDEAL LOADS AIR SYSTEM,Zone Ideal Loads Supply Air Total Cooling Energy [J] !Hourly
End of Data Dictionary
1,RUN PERIOD 1,  51.96,   4.45,   1.00,  -4.50
2,1, 1, 1, 0, 1, 0.00,60.00,Sunday
141,26612479.114954878
190,0.0
2,1, 1, 1, 0, 2, 0.00,60.00,Sunday
141,27597305.237288654
190,0.0
2,1, 1, 1, 0, 3, 0.00,60.00,Sunday
141,27583209.874182746
190,0.0
2,1, 1, 1, 0, 4, 0.00,60.00,Sunday
141,28308163.836109817
190,0.0
2,1, 1, 1, 0, 5, 0.00,60.00,Sunday
141,28800163.525336206
190,0.0
2,1, 1, 1, 0, 6, 0.00,60.00,Sunday
141,28849732.942939058
190,0.0
2,1, 1, 1, 0, 7, 0.00,60.00,Sunday
141,28932341.054295044
190,0.0
2,1, 1, 1, 0, 8, 0.00,60.00,Sunday
141,28859493.17206504
190,0.0
2,1, 1, 1, 0, 9, 0.00,60.00,Sunday
141,28794491.487097155
190,0.0
2,1, 1, 1, 0,10, 0.00,60.00,Sunday
141,28552322.924740173
190,0.0
2,1, 1, 1, 0,11, 0.00,60.00,Sunday
141,27938243.97407075
190,0.0
2,1, 1, 1, 0,12, 0.00,60.00,Sunday
141,26948078.726810843
190,0.0
2,1, 1, 1, 0,13, 0.00,60.00,Sunday
141,26460168.239453945
190,0.0
2,1, 1, 1, 0,14, 0.00,60.00,Sunday
141,25789534.726461247
190,0.0
2,1, 1, 1, 0,15, 0.00,60.00,Sunday
141,25324486.524617504
190,0.0
2,1, 1, 1, 0,16, 0.00,60.00,Sunday
141,25777787.358820096
190,0.0
2,1, 1, 1, 0,17, 0.00,60.00,Sunday
141,26349707.475914277
190,0.0
2,1, 1, 1, 0,18, 0.00,60.00,Sunday
141,26533017.013481125
190,0.0
2,1, 1, 1, 0,19, 0.00,60.00,Sunday
141,26694311.295544963
190,0.0
2,1, 1, 1, 0,20, 0.00,60.00,Sunday
141,26665947.563694455
190,0.0
2,1, 1, 1, 0,21, 0.00,60.00,Sunday
141,26573015.90037876
190,0.0
2,1, 1, 1, 0,22, 0.00,60.00,Sunday
141,26635425.12471252
190,0.0
2,1, 1, 1, 0,23, 0.00,60.00,Sunday
141,25947341.252495915
190,0.0
2,1, 1, 1, 0,24, 0.00,60.00,Sunday
141,25435185.53826853
190,0.0
2,2, 1, 2, 0, 1, 0.00,60.00,Monday
141,25524076.282642446
190,0.0
2,2, 1, 2, 0, 2, 0.00,60.00,Monday
141,24828353.059930578
190,0.0
2,2, 1, 2, 0, 3, 0.00,60.00,Monday
141,24293483.50747878
190,0.0
2,2, 1, 2, 0, 4, 0.00,60.00,Monday
141,23752049.686276756
190,0.0
2,2, 1, 2, 0, 5, 0.00,60.00,Monday
141,22571193.619919278
190,0.0
2,2, 1, 2, 0, 6, 0.00,60.00,Monday
141,22010048.04440795
190,0.0
2,2, 1, 2, 0, 7, 0.00,60.00,Monday
141,21130755.575971674
190,0.0
2,2, 1, 2, 0, 8, 0.00,60.00,Monday
141,20061008.266605813
190,0.0
2,2, 1, 2, 0, 9, 0.00,60.00,Monday
141,20401704.092560317
190,0.0
2,2, 1, 2, 0,10, 0.00,60.00,Monday
141,21214550.84582942
190,0.0
2,2, 1, 2, 0,11, 0.00,60.00,Monday
141,21772737.77497475
190,0.0
2,2, 1, 2, 0,12, 0.00,60.00,Monday
141,21328941.659545332
190,0.0
2,2, 1, 2, 0,13, 0.00,60.00,Monday
141,21153919.113676205
190,0.0
2,2, 1, 2, 0,14, 0.00,60.00,Monday
141,21722137.753478974
190,0.0
2,2, 1, 2, 0,15, 0.00,60.00,Monday
141,21965800.962393228
190,0.0
2,2, 1, 2, 0,16, 0.00,60.00,Monday
141,22486231.340431698
190,0.0
2,2, 1, 2, 0,17, 0.00,60.00,Monday
141,22989043.865628194
190,0.0
2,2, 1, 2, 0,18, 0.00,60.00,Monday
141,23066941.73334497
190,0.0
2,2, 1, 2, 0,19, 0.00,60.00,Monday
141,23611943.804616876
190,0.0
2,2, 1, 2, 0,20, 0.00,60.00,Monday
141,24106251.467685413
190,0.0
2,2, 1, 2, 0,21, 0.00,60.00,Monday
141,24162935.787492752
190,0.0
2,2, 1, 2, 0,22, 0.00,60.00,Monday
141,24117032.662591014
190,0.0
2,2, 1, 2, 0,23, 0.00,60.00,Monday
141,24105721.922517497
190,0.0
2,2, 1, 2, 0,24, 0.00,60.00,Monday
141,24105556.409947637
190,0.0
2,3, 1, 3, 0, 1, 0.00,60.00,Tuesday
141,24123726.160757713
190,0.0
2,3, 1, 3, 0, 2, 0.00,60.00,Tuesday
141,24094751.740761343
190,0.0
2,3, 1, 3, 0, 3, 0.00,60.00,Tuesday
141,24050909.608893376
190,0.0
2,3, 1, 3, 0, 4, 0.00,60.00,Tuesday
141,24115661.744831055
190,0.0
2,3, 1, 3, 0, 5, 0.00,60.00,Tuesday
141,24754367.19393158
190,0.0
2,3, 1, 3, 0, 6, 0.00,60.00,Tuesday
141,25163142.887551736
190,0.0
2,3, 1, 3, 0, 7, 0.00,60.00,Tuesday
141,25352647.290920284
190,0.0
2,3, 1, 3, 0, 8, 0.00,60.00,Tuesday
141,25282724.728236675
190,0.0
2,3, 1, 3, 0, 9, 0.00,60.00,Tuesday
141,25808414.528468348
190,0.0
2,3, 1, 3, 0,10, 0.00,60.00,Tuesday
141,26058071.094159182
190,0.0
2,3, 1, 3, 0,11, 0.00,60.00,Tuesday
141,26117241.925073095
190,0.0
2,3, 1, 3, 0,12, 0.00,60.00,Tuesday
141,26274940.254459966
190,0.0
2,3, 1, 3, 0,13, 0.00,60.00,Tuesday
141,27094458.58081941
190,0.0
2,3, 1, 3, 0,14, 0.00,60.00,Tuesday
141,27543380.969886623
190,0.0
2,3, 1, 3, 0,15, 0.00,60.00,Tuesday
141,27441991.204628468
190,0.0
2,3, 1, 3, 0,16, 0.00,60.00,Tuesday
141,27350896.431396123
190,0.0
2,3, 1, 3, 0,17, 0.00,60.00,Tuesday
141,27377545.515355796
190,0.0
2,3, 1, 3, 0,18, 0.00,60.00,Tuesday
141,27444523.879568085
190,0.0
2,3, 1, 3, 0,19, 0.00,60.00,Tuesday
141,27312267.024217173
190,0.0
2,3, 1, 3, 0,20, 0.00,60.00,Tuesday
141,26665576.77681155
190,0.0
2,3, 1, 3, 0,21, 0.00,60.00,Tuesday
141,24917779.14569404
190,0.0
2,3, 1, 3, 0,22, 0.00,60.00,Tuesday
141,23980022.426492363
190,0.0
2,3, 1, 3, 0,23, 0.00,60.00,Tuesday
141,24648539.479475297
190,0.0
2,3, 1, 3, 0,24, 0.00,60.00,Tuesday
141,25789155.12147549
190,0.0
2,4, 1, 4, 0, 1, 0.00,60.00,Wednesday
141,26357503.005220592
190,0.0
2,4, 1, 4, 0, 2, 0.00,60.00,Wednesday
141,26267989.665491212
190,0.0
2,4, 1, 4, 0, 3, 0.00,60.00,Wednesday
141,26095795.395339064
190,0.0
2,4, 1, 4, 0, 4, 0.00,60.00,Wednesday
141,26287259.337876555
190,0.0
2,4, 1, 4, 0, 5, 0.00,60.00,Wednesday
141,27043229.275757138
190,0.0
2,4, 1, 4, 0, 6, 0.00,60.00,Wednesday
141,26842204.956244137
190,0.0
2,4, 1, 4, 0, 7, 0.00,60.00,Wednesday
141,26802727.562757004
190,0.0
2,4, 1, 4, 0, 8, 0.00,60.00,Wednesday
141,27103874.84641119
190,0.0
2,4, 1, 4, 0, 9, 0.00,60.00,Wednesday
141,27320763.610828374
190,0.0
2,4, 1, 4, 0,10, 0.00,60.00,Wednesday
141,27495734.653420065
190,0.0
2,4, 1, 4, 0,11, 0.00,60.00,Wednesday
141,26123023.646296233
190,0.0
2,4, 1, 4, 0,12, 0.00,60.00,Wednesday
141,23801013.58473475
190,0.0
2,4, 1, 4, 0,13, 0.00,60.00,Wednesday
141,23176560.346172348
190,0.0
2,4, 1, 4, 0,14, 0.00,60.00,Wednesday
141,23092722.5342468
190,0.0
2,4, 1, 4, 0,15, 0.00,60.00,Wednesday
141,22871470.917071093
190,0.0
2,4, 1, 4, 0,16, 0.00,60.00,Wednesday
141,23826910.379595105
190,0.0
2,4, 1, 4, 0,17, 0.00,60.00,Wednesday
141,25536949.222177237
190,0.0
2,4, 1, 4, 0,18, 0.00,60.00,Wednesday
141,27017903.38735205
190,0.0
2,4, 1, 4, 0,19, 0.00,60.00,Wednesday
141,28521033.406442635
190,0.0
2,4, 1, 4, 0,20, 0.00,60.00,Wednesday
141,29304843.959900256
190,0.0
2,4, 1, 4, 0,21, 0.00,60.00,Wednesday
141,29650811.436600264
190,0.0
2,4, 1, 4, 0,22, 0.00,60.00,Wednesday
141,30363121.771962628
190,0.0
2,4, 1, 4, 0,23, 0.00,60.00,Wednesday
141,30021118.815996528
190,0.0
2,4, 1, 4, 0,24, 0.00,60.00,Wednesday
141,29457531.02789558
190,0.0
2,5, 1, 5, 0, 1, 0.00,60.00,Thursday
141,29621679.057137296
190,0.0
2,5, 1, 5, 0, 2, 0.00,60.00,Thursday
141,29222579.149827983
190,0.0
2,5, 1, 5, 0, 3, 0.00,60.00,Thursday
141,28839123.845539376
190,0.0
2,5, 1, 5, 0, 4, 0.00,60.00,Thursday
141,28889821.943489667
190,0.0
2,5, 1, 5, 0, 5, 0.00,60.00,Thursday
141,28469105.14280944
190,0.0
2,5, 1, 5, 0, 6, 0.00,60.00,Thursday
141,28291104.799530048
190,0.0
2,5, 1, 5, 0, 7, 0.00,60.00,Thursday
141,28562665.604699835
190,0.0
2,5, 1, 5, 0, 8, 0.00,60.00,Thursday
141,28805292.297179203
190,0.0
2,5, 1, 5, 0, 9, 0.00,60.00,Thursday
141,28897092.145052414
190,0.0
2,5, 1, 5, 0,10, 0.00,60.00,Thursday
141,29353142.720775202
190,0.0
2,5, 1, 5, 0,11, 0.00,60.00,Thursday
141,29240905.107390825
190,0.0
2,5, 1, 5, 0,12, 0.00,60.00,Thursday
141,28251076.876020238
190,0.0
2,5, 1, 5, 0,13, 0.00,60.00,Thursday
141,27907872.261134952
190,0.0
2,5, 1, 5, 0,14, 0.00,60.00,Thursday
141,27199456.90747256
190,0.0
2,5, 1, 5, 0,15, 0.00,60.00,Thursday
141,26638701.158124957
190,0.0
2,5, 1, 5, 0,16, 0.00,60.00,Thursday
141,27108544.432090513
190,0.0
2,5, 1, 5, 0,17, 0.00,60.00,Thursday
141,26998531.54265715
190,0.0
2,5, 1, 5, 0,18, 0.00,60.00,Thursday
141,26695659.868071012
190,0.0
2,5, 1, 5, 0,19, 0.00,60.00,Thursday
141,26873538.365690283
190,0.0
2,5, 1, 5, 0,20, 0.00,60.00,Thursday
141,26843985.76777468
190,0.0
2,5, 1, 5, 0,21, 0.00,60.00,Thursday
141,26743837.136010632
190,0.0
2,5, 1, 5, 0,22, 0.00,60.00,Thursday
141,26769740.01376183
190,0.0
2,5, 1, 5, 0,23, 0.00,60.00,Thursday
141,26925510.92487375
190,0.0
2,5, 1, 5, 0,24, 0.00,60.00,Thursday
141,27094646.125734884
190,0.0
2,6, 1, 6, 0, 1, 0.00,60.00,Friday
141,27208189.11698299
190,0.0
2,6, 1, 6, 0, 2, 0.00,60.00,Friday
141,27316732.558878735
190,0.0
2,6, 1, 6, 0, 3, 0.00,60.00,Friday
141,27983964.316870145
190,0.0
2,6, 1, 6, 0, 4, 0.00,60.00,Friday
141,28630002.556660004
190,0.0
2,6, 1, 6, 0, 5, 0.00,60.00,Friday
141,28969049.419266798
190,0.0
2,6, 1, 6, 0, 6, 0.00,60.00,Friday
141,29380394.53978651
190,0.0
2,6, 1, 6, 0, 7, 0.00,60.00,Friday
141,29985599.058953844
190,0.0
2,6, 1, 6, 0, 8, 0.00,60.00,Friday
141,30557104.613110572
190,0.0
2,6, 1, 6, 0, 9, 0.00,60.00,Friday
141,31244228.62510715
190,0.0
2,6, 1, 6, 0,10, 0.00,60.00,Friday
141,31651611.283846162
190,0.0
2,6, 1, 6, 0,11, 0.00,60.00,Friday
141,31193967.598267782
190,0.0
2,6, 1, 6, 0,12, 0.00,60.00,Friday
141,30479081.891764738
190,0.0
2,6, 1, 6, 0,13, 0.00,60.00,Friday
141,30139831.531751912
190,0.0
2,6, 1, 6, 0,14, 0.00,60.00,Friday
141,30002622.13795105
190,0.0
2,6, 1, 6, 0,15, 0.00,60.00,Friday
141,29810608.699319758
190,0.0
2,6, 1, 6, 0,16, 0.00,60.00,Friday
141,29363691.654880695
190,0.0
2,6, 1, 6, 0,17, 0.00,60.00,Friday
141,28901939.56252241
190,0.0
2,6, 1, 6, 0,18, 0.00,60.00,Friday
141,28682857.827031482
190,0.0
2,6, 1, 6, 0,19, 0.00,60.00,Friday
141,28426562.516017392
190,0.0
2,6, 1, 6, 0,20, 0.00,60.00,Friday
141,27799809.36717107
190,0.0
2,6, 1, 6, 0,21, 0.00,60.00,Friday
141,26228323.356853325
190,0.0
2,6, 1, 6, 0,22, 0.00,60.00,Friday
141,24346969.998685878
190,0.0
2,6, 1, 6, 0,23, 0.00,60.00,Friday
141,23507041.828557156
190,0.0
2,6, 1, 6, 0,24, 0.00,60.00,Friday
141,23694596.714993104
190,0.0
2,7, 1, 7, 0, 1, 0.00,60.00,Saturday
141,25188233.298511233
190,0.0
2,7, 1, 7, 0, 2, 0.00,60.00,Saturday
141,26676711.22941509
190,0.0
2,7, 1, 7, 0, 3, 0.00,60.00,Saturday
141,26465448.75731479
190,0.0
2,7, 1, 7, 0, 4, 0.00,60.00,Saturday
141,26584031.54709064
190,0.0
2,7, 1, 7, 0, 5, 0.00,60.00,Saturday
141,27598642.9981206
190,0.0
2,7, 1, 7, 0, 6, 0.00,60.00,Saturday
141,28391210.844964422
190,0.0
2,7, 1, 7, 0, 7, 0.00,60.00,Saturday
141,28853283.835663386
190,0.0
2,7, 1, 7, 0, 8, 0.00,60.00,Saturday
141,29077574.991215646
190,0.0
2,7, 1, 7, 0, 9, 0.00,60.00,Saturday
141,28501922.755835935
190,0.0
2,7, 1, 7, 0,10, 0.00,60.00,Saturday
141,27985251.746797096
190,0.0
2,7, 1, 7, 0,11, 0.00,60.00,Saturday
141,26482270.623256408
190,0.0
2,7, 1, 7, 0,12, 0.00,60.00,Saturday
141,24969382.13850378
190,0.0
2,7, 1, 7, 0,13, 0.00,60.00,Saturday
141,23874268.710978996
190,0.0
2,7, 1, 7, 0,14, 0.00,60.00,Saturday
141,23331997.60543488
190,0.0
2,7, 1, 7, 0,15, 0.00,60.00,Saturday
141,23595809.472802836
190,0.0
2,7, 1, 7, 0,16, 0.00,60.00,Saturday
141,24131461.358941607
190,0.0
2,7, 1, 7, 0,17, 0.00,60.00,Saturday
141,24585063.12929582
190,0.0
2,7, 1, 7, 0,18, 0.00,60.00,Saturday
141,25348538.40724835
190,0.0
2,7, 1, 7, 0,19, 0.00,60.00,Saturday
141,26060046.98061907
190,0.0
2,7, 1, 7, 0,20, 0.00,60.00,Saturday
141,26741024.14272674
190,0.0
2,7, 1, 7, 0,21, 0.00,60.00,Saturday
141,27224548.965801664
190,0.0
2,7, 1, 7, 0,22, 0.00,60.00,Saturday
141,27247217.19524353
190,0.0
2,7, 1, 7, 0,23, 0.00,60.00,Saturday
141,27328533.176268186
190,0.0
2,7, 1, 7, 0,24, 0.00,60.00,Saturday
141,27275671.82302122
190,0.0
2,8, 1, 8, 0, 1, 0.00,60.00,Sunday
141,26816597.40818956
190,0.0
2,8, 1, 8, 0, 2, 0.00,60.00,Sunday
141,26280593.555082425
190,0.0
2,8, 1, 8, 0, 3, 0.00,60.00,Sunday
141,25793823.86520361
190,0.0
2,8, 1, 8, 0, 4, 0.00,60.00,Sunday
141,25104666.54625459
190,0.0
2,8, 1, 8, 0, 5, 0.00,60.00,Sunday
141,24270859.408300247
190,0.0
2,8, 1, 8, 0, 6, 0.00,60.00,Sunday
141,23643892.283541083
190,0.0
2,8, 1, 8, 0, 7, 0.00,60.00,Sunday
141,23165125.444146406
190,0.0
2,8, 1, 8, 0, 8, 0.00,60.00,Sunday
141,22755435.797948223
190,0.0
2,8, 1, 8, 0, 9, 0.00,60.00,Sunday
141,22329131.345569015
190,0.0
2,8, 1, 8, 0,10, 0.00,60.00,Sunday
141,22191613.370879587
190,0.0
2,8, 1, 8, 0,11, 0.00,60.00,Sunday
141,22087506.292860366
190,0.0
2,8, 1, 8, 0,12, 0.00,60.00,Sunday
141,22174412.86224251
190,0.0
2,8, 1, 8, 0,13, 0.00,60.00,Sunday
141,22098485.00261291
190,0.0
2,8, 1, 8, 0,14, 0.00,60.00,Sunday
141,22201551.18011994
190,0.0
2,8, 1, 8, 0,15, 0.00,60.00,Sunday
141,23122893.452795316
190,0.0
2,8, 1, 8, 0,16, 0.00,60.00,Sunday
141,23787369.359248605
190,0.0
2,8, 1, 8, 0,17, 0.00,60.00,Sunday
141,23822450.135372177
190,0.0
2,8, 1, 8, 0,18, 0.00,60.00,Sunday
141,24116152.795878187
190,0.0
2,8, 1, 8, 0,19, 0.00,60.00,Sunday
141,23956766.769221786
190,0.0
2,8, 1, 8, 0,20, 0.00,60.00,Sunday
141,23400212.067071345
190,0.0
2,8, 1, 8, 0,21, 0.00,60.00,Sunday
141,22998896.856821205
190,0.0
2,8, 1, 8, 0,22, 0.00,60.00,Sunday
141,23109693.41662673
190,0.0
2,8, 1, 8, 0,23, 0.00,60.00,Sunday
141,23213358.032630883
190,0.0
2,8, 1, 8, 0,24, 0.00,60.00,Sunday
141,23539864.24522213
190,0.0
2,9, 1, 9, 0, 1, 0.00,60.00,Monday
141,23600279.211827375
190,0.0
2,9, 1, 9, 0, 2, 0.00,60.00,Monday
141,23635666.06459259
190,0.0
2,9, 1, 9, 0, 3, 0.00,60.00,Monday
141,23553247.331352104
190,0.0
2,9, 1, 9, 0, 4, 0.00,60.00,Monday
141,23349151.123437956
190,0.0
2,9, 1, 9, 0, 5, 0.00,60.00,Monday
141,22894033.355760027
190,0.0
2,9, 1, 9, 0, 6, 0.00,60.00,Monday
141,22433991.881546203
190,0.0
2,9, 1, 9, 0, 7, 0.00,60.00,Monday
141,22102350.322296184
190,0.0
2,9, 1, 9, 0, 8, 0.00,60.00,Monday
141,21923200.257146608
190,0.0
2,9, 1, 9, 0, 9, 0.00,60.00,Monday
141,21430766.56682476
190,0.0
2,9, 1, 9, 0,10, 0.00,60.00,Monday
141,20231762.134587914
190,0.0
2,9, 1, 9, 0,11, 0.00,60.00,Monday
141,19211166.87459219
190,0.0
2,9, 1, 9, 0,12, 0.00,60.00,Monday
141,18648650.83283092
190,0.0
2,9, 1, 9, 0,13, 0.00,60.00,Monday
141,18185926.041886054
190,0.0
2,9, 1, 9, 0,14, 0.00,60.00,Monday
141,17851399.973181825
190,0.0
2,9, 1, 9, 0,15, 0.00,60.00,Monday
141,17741193.72040778
190,0.0
2,9, 1, 9, 0,16, 0.00,60.00,Monday
141,17990426.054318313
190,0.0
2,9, 1, 9, 0,17, 0.00,60.00,Monday
141,18813855.697711345
190,0.0
2,9, 1, 9, 0,18, 0.00,60.00,Monday
141,19590807.66972284
190,0.0
2,9, 1, 9, 0,19, 0.00,60.00,Monday
141,19534773.146082558
190,0.0
2,9, 1, 9, 0,20, 0.00,60.00,Monday
141,18463407.473837074
190,0.0
2,9, 1, 9, 0,21, 0.00,60.00,Monday
141,17380032.457128674
190,0.0
2,9, 1, 9, 0,22, 0.00,60.00,Monday
141,16716914.401299944
190,0.0
2,9, 1, 9, 0,23, 0.00,60.00,Monday
141,16595704.35090228
190,0.0
2,9, 1, 9, 0,24, 0.00,60.00,Monday
141,16667094.29190152
190,0.0
2,10, 1,10, 0, 1, 0.00,60.00,Tuesday
141,16969575.790954184
190,0.0
2,10, 1,10, 0, 2, 0.00,60.00,Tuesday
141,17178113.893442847
190,0.0
2,10, 1,10, 0, 3, 0.00,60.00,Tuesday
141,17219675.35110133
190,0.0
2,10, 1,10, 0, 4, 0.00,60.00,Tuesday
141,17560181.20392073
190,0.0
2,10, 1,10, 0, 5, 0.00,60.00,Tuesday
141,17690991.953274652
190,0.0
2,10, 1,10, 0, 6, 0.00,60.00,Tuesday
141,17740219.1657818
190,0.0
2,10, 1,10, 0, 7, 0.00,60.00,Tuesday
141,17797660.33208547
190,0.0
2,10, 1,10, 0, 8, 0.00,60.00,Tuesday
141,17694386.980105426
190,0.0
2,10, 1,10, 0, 9, 0.00,60.00,Tuesday
141,17540722.59670464
190,0.0
2,10, 1,10, 0,10, 0.00,60.00,Tuesday
141,17326130.744850673
190,0.0
2,10, 1,10, 0,11, 0.00,60.00,Tuesday
141,17005302.388812106
190,0.0
2,10, 1,10, 0,12, 0.00,60.00,Tuesday
141,16635683.590644935
190,0.0
2,10, 1,10, 0,13, 0.00,60.00,Tuesday
141,16587649.7333896
190,0.0
2,10, 1,10, 0,14, 0.00,60.00,Tuesday
141,18007261.96918714
190,0.0
2,10, 1,10, 0,15, 0.00,60.00,Tuesday
141,19157145.22908072
190,0.0
2,10, 1,10, 0,16, 0.00,60.00,Tuesday
141,19869865.81319586
190,0.0
2,10, 1,10, 0,17, 0.00,60.00,Tuesday
141,20602103.925435442
190,0.0
2,10, 1,10, 0,18, 0.00,60.00,Tuesday
141,21546632.7530295
190,0.0
2,10, 1,10, 0,19, 0.00,60.00,Tuesday
141,22049055.200024806
190,0.0
2,10, 1,10, 0,20, 0.00,60.00,Tuesday
141,22425711.243636385
190,0.0
2,10, 1,10, 0,21, 0.00,60.00,Tuesday
141,23017128.533278834
190,0.0
2,10, 1,10, 0,22, 0.00,60.00,Tuesday
141,23354059.855919704
190,0.0
2,10, 1,10, 0,23, 0.00,60.00,Tuesday
141,23143855.075234763
190,0.0
2,10, 1,10, 0,24, 0.00,60.00,Tuesday
141,23526593.368413474
190,0.0
2,11, 1,11, 0, 1, 0.00,60.00,Wednesday
141,23584983.241393168
190,0.0
2,11, 1,11, 0, 2, 0.00,60.00,Wednesday
141,23641062.292675987
190,0.0
2,11, 1,11, 0, 3, 0.00,60.00,Wednesday
141,23847509.127043296
190,0.0
2,11, 1,11, 0, 4, 0.00,60.00,Wednesday
141,23545334.701948125
190,0.0
2,11, 1,11, 0, 5, 0.00,60.00,Wednesday
141,23326647.653011147
190,0.0
2,11, 1,11, 0, 6, 0.00,60.00,Wednesday
141,23239841.497533634
190,0.0
2,11, 1,11, 0, 7, 0.00,60.00,Wednesday
141,23315038.224206716
190,0.0
2,11, 1,11, 0, 8, 0.00,60.00,Wednesday
141,23408047.610433884
190,0.0
2,11, 1,11, 0, 9, 0.00,60.00,Wednesday
141,23346918.449674692
190,0.0
2,11, 1,11, 0,10, 0.00,60.00,Wednesday
141,23180216.426973846
190,0.0
2,11, 1,11, 0,11, 0.00,60.00,Wednesday
141,22898421.870076843
190,0.0
2,11, 1,11, 0,12, 0.00,60.00,Wednesday
141,22435898.912969507
190,0.0
2,11, 1,11, 0,13, 0.00,60.00,Wednesday
141,22080767.89841023
190,0.0
2,11, 1,11, 0,14, 0.00,60.00,Wednesday
141,21934066.151486654
190,0.0
2,11, 1,11, 0,15, 0.00,60.00,Wednesday
141,21901092.003962867
190,0.0
2,11, 1,11, 0,16, 0.00,60.00,Wednesday
141,21920696.869086158
190,0.0
2,11, 1,11, 0,17, 0.00,60.00,Wednesday
141,21674577.492819555
190,0.0
2,11, 1,11, 0,18, 0.00,60.00,Wednesday
141,21438480.05407235
190,0.0
2,11, 1,11, 0,19, 0.00,60.00,Wednesday
141,21276031.057195906
190,0.0
2,11, 1,11, 0,20, 0.00,60.00,Wednesday
141,21261907.710739154
190,0.0
2,11, 1,11, 0,21, 0.00,60.00,Wednesday
141,21257465.433535125
190,0.0
2,11, 1,11, 0,22, 0.00,60.00,Wednesday
141,20753336.82487804
190,0.0
2,11, 1,11, 0,23, 0.00,60.00,Wednesday
141,20364073.37220636
190,0.0
2,11, 1,11, 0,24, 0.00,60.00,Wednesday
141,20395061.086679325
190,0.0
2,12, 1,12, 0, 1, 0.00,60.00,Thursday
141,20583469.51359295
190,0.0
2,12, 1,12, 0, 2, 0.00,60.00,Thursday
141,20611653.08240024
190,0.0
2,12, 1,12, 0, 3, 0.00,60.00,Thursday
141,20496653.273054406
190,0.0
2,12, 1,12, 0, 4, 0.00,60.00,Thursday
141,20518030.189515132
190,0.0
2,12, 1,12, 0, 5, 0.00,60.00,Thursday
141,20699548.069698766
190,0.0
2,12, 1,12, 0, 6, 0.00,60.00,Thursday
141,21121849.49907328
190,0.0
2,12, 1,12, 0, 7, 0.00,60.00,Thursday
141,21352340.264299832
190,0.0
2,12, 1,12, 0, 8, 0.00,60.00,Thursday
141,21412356.279087957
190,0.0
2,12, 1,12, 0, 9, 0.00,60.00,Thursday
141,21122912.05852969
190,0.0
2,12, 1,12, 0,10, 0.00,60.00,Thursday
141,20487878.99891862
190,0.0
2,12, 1,12, 0,11, 0.00,60.00,Thursday
141,20004690.51626572
190,0.0
2,12, 1,12, 0,12, 0.00,60.00,Thursday
141,19729546.315580133
190,0.0
2,12, 1,12, 0,13, 0.00,60.00,Thursday
141,19367671.512895875
190,0.0
2,12, 1,12, 0,14, 0.00,60.00,Thursday
141,18976617.623199943
190,0.0
2,12, 1,12, 0,15, 0.00,60.00,Thursday
141,18963914.597321127
190,0.0
2,12, 1,12, 0,16, 0.00,60.00,Thursday
141,19122328.731046364
190,0.0
2,12, 1,12, 0,17, 0.00,60.00,Thursday
141,19892313.185133845
190,0.0
2,12, 1,12, 0,18, 0.00,60.00,Thursday
141,20342338.447126962
190,0.0
2,12, 1,12, 0,19, 0.00,60.00,Thursday
141,20159861.420256298
190,0.0
2,12, 1,12, 0,20, 0.00,60.00,Thursday
141,19732730.282646038
190,0.0
2,12, 1,12, 0,21, 0.00,60.00,Thursday
141,19557765.804208986
190,0.0
2,12, 1,12, 0,22, 0.00,60.00,Thursday
141,19268340.599185217
190,0.0
2,12, 1,12, 0,23, 0.00,60.00,Thursday
141,19159217.80380538
190,0.0
2,12, 1,12, 0,24, 0.00,60.00,Thursday
141,19179453.114136737
190,0.0
2,13, 1,13, 0, 1, 0.00,60.00,Friday
141,18990907.014934897
190,0.0
2,13, 1,13, 0, 2, 0.00,60.00,Friday
141,18818532.253272466
190,0.0
2,13, 1,13, 0, 3, 0.00,60.00,Friday
141,18561348.98413563
190,0.0
2,13, 1,13, 0, 4, 0.00,60.00,Friday
141,18405832.04867635
190,0.0
2,13, 1,13, 0, 5, 0.00,60.00,Friday
141,18392055.714629766
190,0.0
2,13, 1,13, 0, 6, 0.00,60.00,Friday
141,18444450.47268451
190,0.0
2,13, 1,13, 0, 7, 0.00,60.00,Friday
141,18606597.435657147
190,0.0
2,13, 1,13, 0, 8, 0.00,60.00,Friday
141,18618164.9316934
190,0.0
2,13, 1,13, 0, 9, 0.00,60.00,Friday
141,18427216.62269462
190,0.0
2,13, 1,13, 0,10, 0.00,60.00,Friday
141,18907621.28357602
190,0.0
2,13, 1,13, 0,11, 0.00,60.00,Friday
141,19445061.65642371
190,0.0
2,13, 1,13, 0,12, 0.00,60.00,Friday
141,19479578.355554122
190,0.0
2,13, 1,13, 0,13, 0.00,60.00,Friday
141,19542689.220521834
190,0.0
2,13, 1,13, 0,14, 0.00,60.00,Friday
141,19871138.308875892
190,0.0
2,13, 1,13, 0,15, 0.00,60.00,Friday
141,20046441.247257844
190,0.0
2,13, 1,13, 0,16, 0.00,60.00,Friday
141,19972039.74554358
190,0.0
2,13, 1,13, 0,17, 0.00,60.00,Friday
141,19848724.947842155
190,0.0
2,13, 1,13, 0,18, 0.00,60.00,Friday
141,19785162.91894834
190,0.0
2,13, 1,13, 0,19, 0.00,60.00,Friday
141,20092442.112888817
190,0.0
2,13, 1,13, 0,20, 0.00,60.00,Friday
141,20645452.99817917
190,0.0
2,13, 1,13, 0,21, 0.00,60.00,Friday
141,21139293.305804543
190,0.0
2,13, 1,13, 0,22, 0.00,60.00,Friday
141,21449438.691944025
190,0.0
2,13, 1,13, 0,23, 0.00,60.00,Friday
141,21327948.824789792
190,0.0
2,13, 1,13, 0,24, 0.00,60.00,Friday
141,22628821.91530358
190,0.0
2,14, 1,14, 0, 1, 0.00,60.00,Saturday
141,23522694.744174488
190,0.0
2,14, 1,14, 0, 2, 0.00,60.00,Saturday
141,23143738.32379654
190,0.0
2,14, 1,14, 0, 3, 0.00,60.00,Saturday
141,23215906.504312094
190,0.0
2,14, 1,14, 0, 4, 0.00,60.00,Saturday
141,23071317.93726925
190,0.0
2,14, 1,14, 0, 5, 0.00,60.00,Saturday
141,23027899.261781685
190,0.0
2,14, 1,14, 0, 6, 0.00,60.00,Saturday
141,23975603.654780246
190,0.0
2,14, 1,14, 0, 7, 0.00,60.00,Saturday
141,24685117.37445154
190,0.0
2,14, 1,14, 0, 8, 0.00,60.00,Saturday
141,24443030.309420697
190,0.0
2,14, 1,14, 0, 9, 0.00,60.00,Saturday
141,24813367.20589785
190,0.0
2,14, 1,14, 0,10, 0.00,60.00,Saturday
141,25315695.277537435
190,0.0
2,14, 1,14, 0,11, 0.00,60.00,Saturday
141,25092883.430093654
190,0.0
2,14, 1,14, 0,12, 0.00,60.00,Saturday
141,24766128.578034483
190,0.0
2,14, 1,14, 0,13, 0.00,60.00,Saturday
141,24207051.64573662
190,0.0
2,14, 1,14, 0,14, 0.00,60.00,Saturday
141,23084961.93390532
190,0.0
2,14, 1,14, 0,15, 0.00,60.00,Saturday
141,22941351.51797281
190,0.0
2,14, 1,14, 0,16, 0.00,60.00,Saturday
141,23193170.269281935
190,0.0
2,14, 1,14, 0,17, 0.00,60.00,Saturday
141,23643553.060389664
190,0.0
2,14, 1,14, 0,18, 0.00,60.00,Saturday
141,24476863.970058676
190,0.0
2,14, 1,14, 0,19, 0.00,60.00,Saturday
141,24495702.023929074
190,0.0
2,14, 1,14, 0,20, 0.00,60.00,Saturday
141,24606999.450966798
190,0.0
2,14, 1,14, 0,21, 0.00,60.00,Saturday
141,24450106.80739155
190,0.0
2,14, 1,14, 0,22, 0.00,60.00,Saturday
141,24160901.394390535
190,0.0
2,14, 1,14, 0,23, 0.00,60.00,Saturday
141,23952033.4727517
190,0.0
2,14, 1,14, 0,24, 0.00,60.00,Saturday
141,23863512.194854613
190,0.0
2,15, 1,15, 0, 1, 0.00,60.00,Sunday
141,23360123.032239757
190,0.0
2,15, 1,15, 0, 2, 0.00,60.00,Sunday
141,22168865.766664386
190,0.0
2,15, 1,15, 0, 3, 0.00,60.00,Sunday
141,21591884.16620223
190,0.0
2,15, 1,15, 0, 4, 0.00,60.00,Sunday
141,21189332.217322543
190,0.0
2,15, 1,15, 0, 5, 0.00,60.00,Sunday
141,20445600.138480544
190,0.0
2,15, 1,15, 0, 6, 0.00,60.00,Sunday
141,19663768.995025802
190,0.0
2,15, 1,15, 0, 7, 0.00,60.00,Sunday
141,18893876.15162681
190,0.0
2,15, 1,15, 0, 8, 0.00,60.00,Sunday
141,18390895.953631878
190,0.0
2,15, 1,15, 0, 9, 0.00,60.00,Sunday
141,18014548.264196716
190,0.0
2,15, 1,15, 0,10, 0.00,60.00,Sunday
141,17977947.475241736
190,0.0
2,15, 1,15, 0,11, 0.00,60.00,Sunday
141,18415519.88590915
190,0.0
2,15, 1,15, 0,12, 0.00,60.00,Sunday
141,19512534.627775908
190,0.0
2,15, 1,15, 0,13, 0.00,60.00,Sunday
141,20328505.830872953
190,0.0
2,15, 1,15, 0,14, 0.00,60.00,Sunday
141,20677438.045538172
190,0.0
2,15, 1,15, 0,15, 0.00,60.00,Sunday
141,20826663.10238483
190,0.0
2,15, 1,15, 0,16, 0.00,60.00,Sunday
141,20580092.527056284
190,0.0
2,15, 1,15, 0,17, 0.00,60.00,Sunday
141,20414107.327083938
190,0.0
2,15, 1,15, 0,18, 0.00,60.00,Sunday
141,20495461.243519187
190,0.0
2,15, 1,15, 0,19, 0.00,60.00,Sunday
141,20686413.2071315
190,0.0
2,15, 1,15, 0,20, 0.00,60.00,Sunday
141,20927353.843208548
190,0.0
2,15, 1,15, 0,21, 0.00,60.00,Sunday
141,21428242.111836486
190,0.0
2,15, 1,15, 0,22, 0.00,60.00,Sunday
141,21653567.278721932
190,0.0
2,15, 1,15, 0,23, 0.00,60.00,Sunday
141,21681375.528751787
190,0.0
2,15, 1,15, 0,24, 0.00,60.00,Sunday
141,21805137.675022397
190,0.0
2,16, 1,16, 0, 1, 0.00,60.00,Monday
141,22256323.100743067
190,0.0
2,16, 1,16, 0, 2, 0.00,60.00,Monday
141,22677513.750857722
190,0.0
2,16, 1,16, 0, 3, 0.00,60.00,Monday
141,22911181.138427507
190,0.0
2,16, 1,16, 0, 4, 0.00,60.00,Monday
141,23079707.90251434
190,0.0
2,16, 1,16, 0, 5, 0.00,60.00,Monday
141,23335066.28686888
190,0.0
2,16, 1,16, 0, 6, 0.00,60.00,Monday
141,23553586.24136181
190,0.0
2,16, 1,16, 0, 7, 0.00,60.00,Monday
141,24009594.205339655
190,0.0
2,16, 1,16, 0, 8, 0.00,60.00,Monday
141,24437788.543235432
190,0.0
2,16, 1,16, 0, 9, 0.00,60.00,Monday
141,24616647.097418413
190,0.0
2,16, 1,16, 0,10, 0.00,60.00,Monday
141,24613344.333723612
190,0.0
2,16, 1,16, 0,11, 0.00,60.00,Monday
141,23635516.644672982
190,0.0
2,16, 1,16, 0,12, 0.00,60.00,Monday
141,22772500.937759902
190,0.0
2,16, 1,16, 0,13, 0.00,60.00,Monday
141,22103569.62132781
190,0.0
2,16, 1,16, 0,14, 0.00,60.00,Monday
141,21663526.828027707
190,0.0
2,16, 1,16, 0,15, 0.00,60.00,Monday
141,21623303.98631676
190,0.0
2,16, 1,16, 0,16, 0.00,60.00,Monday
141,21829416.71450811
190,0.0
2,16, 1,16, 0,17, 0.00,60.00,Monday
141,22318902.203471325
190,0.0
2,16, 1,16, 0,18, 0.00,60.00,Monday
141,23244830.73000128
190,0.0
2,16, 1,16, 0,19, 0.00,60.00,Monday
141,24215853.188882194
190,0.0
2,16, 1,16, 0,20, 0.00,60.00,Monday
141,24707905.63914021
190,0.0
2,16, 1,16, 0,21, 0.00,60.00,Monday
141,25095143.04150577
190,0.0
2,16, 1,16, 0,22, 0.00,60.00,Monday
141,25445347.341668498
190,0.0
2,16, 1,16, 0,23, 0.00,60.00,Monday
141,25974433.04725901
190,0.0
2,16, 1,16, 0,24, 0.00,60.00,Monday
141,26087497.81044189
190,0.0
2,17, 1,17, 0, 1, 0.00,60.00,Tuesday
141,26240202.61093869
190,0.0
2,17, 1,17, 0, 2, 0.00,60.00,Tuesday
141,26872365.959156703
190,0.0
2,17, 1,17, 0, 3, 0.00,60.00,Tuesday
141,27394304.422689732
190,0.0
2,17, 1,17, 0, 4, 0.00,60.00,Tuesday
141,27834913.99953819
190,0.0
2,17, 1,17, 0, 5, 0.00,60.00,Tuesday
141,28327196.6425526
190,0.0
2,17, 1,17, 0, 6, 0.00,60.00,Tuesday
141,28821550.88625662
190,0.0
2,17, 1,17, 0, 7, 0.00,60.00,Tuesday
141,29107757.123551417
190,0.0
2,17, 1,17, 0, 8, 0.00,60.00,Tuesday
141,29249480.348428585
190,0.0
2,17, 1,17, 0, 9, 0.00,60.00,Tuesday
141,29259012.65415503
190,0.0
2,17, 1,17, 0,10, 0.00,60.00,Tuesday
141,28124428.36165586
190,0.0
2,17, 1,17, 0,11, 0.00,60.00,Tuesday
141,26463323.2893868
190,0.0
2,17, 1,17, 0,12, 0.00,60.00,Tuesday
141,25032187.711672075
190,0.0
2,17, 1,17, 0,13, 0.00,60.00,Tuesday
141,24200619.30206024
190,0.0
2,17, 1,17, 0,14, 0.00,60.00,Tuesday
141,24028228.828340434
190,0.0
2,17, 1,17, 0,15, 0.00,60.00,Tuesday
141,24317967.99240108
190,0.0
2,17, 1,17, 0,16, 0.00,60.00,Tuesday
141,25148286.87038093
190,0.0
2,17, 1,17, 0,17, 0.00,60.00,Tuesday
141,25821056.83182788
190,0.0
2,17, 1,17, 0,18, 0.00,60.00,Tuesday
141,25927562.98517093
190,0.0
2,17, 1,17, 0,19, 0.00,60.00,Tuesday
141,25906520.17886551
190,0.0
2,17, 1,17, 0,20, 0.00,60.00,Tuesday
141,26078374.970632207
190,0.0
2,17, 1,17, 0,21, 0.00,60.00,Tuesday
141,26345450.007818066
190,0.0
2,17, 1,17, 0,22, 0.00,60.00,Tuesday
141,26400368.391975097
190,0.0
2,17, 1,17, 0,23, 0.00,60.00,Tuesday
141,26441065.9026724
190,0.0
2,17, 1,17, 0,24, 0.00,60.00,Tuesday
141,26784267.15695259
190,0.0
2,18, 1,18, 0, 1, 0.00,60.00,Wednesday
141,26996860.037089102
190,0.0
2,18, 1,18, 0, 2, 0.00,60.00,Wednesday
141,27144434.30600983
190,0.0
2,18, 1,18, 0, 3, 0.00,60.00,Wednesday
141,27179926.24009206
190,0.0
2,18, 1,18, 0, 4, 0.00,60.00,Wednesday
141,27135642.45290549
190,0.0
2,18, 1,18, 0, 5, 0.00,60.00,Wednesday
141,27141061.647382572
190,0.0
2,18, 1,18, 0, 6, 0.00,60.00,Wednesday
141,27213762.370669737
190,0.0
2,18, 1,18, 0, 7, 0.00,60.00,Wednesday
141,27748151.858029768
190,0.0
2,18, 1,18, 0, 8, 0.00,60.00,Wednesday
141,27894034.903191395
190,0.0
2,18, 1,18, 0, 9, 0.00,60.00,Wednesday
141,27964295.31050591
190,0.0
2,18, 1,18, 0,10, 0.00,60.00,Wednesday
141,27913219.974689383
190,0.0
2,18, 1,18, 0,11, 0.00,60.00,Wednesday
141,27361970.018093217
190,0.0
2,18, 1,18, 0,12, 0.00,60.00,Wednesday
141,26939344.907921955
190,0.0
2,18, 1,18, 0,13, 0.00,60.00,Wednesday
141,27121159.053638346
190,0.0
2,18, 1,18, 0,14, 0.00,60.00,Wednesday
141,27527133.573353857
190,0.0
2,18, 1,18, 0,15, 0.00,60.00,Wednesday
141,27749262.155210905
190,0.0
2,18, 1,18, 0,16, 0.00,60.00,Wednesday
141,28223422.76106944
190,0.0
2,18, 1,18, 0,17, 0.00,60.00,Wednesday
141,28464910.29344175
190,0.0
2,18, 1,18, 0,18, 0.00,60.00,Wednesday
141,28291645.67405983
190,0.0
2,18, 1,18, 0,19, 0.00,60.00,Wednesday
141,28209382.797363393
190,0.0
2,18, 1,18, 0,20, 0.00,60.00,Wednesday
141,28295268.020403937
190,0.0
2,18, 1,18, 0,21, 0.00,60.00,Wednesday
141,28356391.728182226
190,0.0
2,18, 1,18, 0,22, 0.00,60.00,Wednesday
141,28508969.328892667
190,0.0
2,18, 1,18, 0,23, 0.00,60.00,Wednesday
141,28619490.49151169
190,0.0
2,18, 1,18, 0,24, 0.00,60.00,Wednesday
141,28767244.19215068
190,0.0