Program Version,EnergyPlus, Version 24.2.0-94a887817b, YMD=2025.04.24 13:20
1,5,Environment Title[],Latitude[deg],Longitude[deg],Time Zone[],Elevation[m]
2,8,Day of Simulation[],Month[],Day of Month[],DST Indicator[1=yes 0=no],Hour[],StartMinute[],EndMinute[],DayType
3,5,Cumulative Day of Simulation[],Month[],Day of Month[],DST Indicator[1=yes 0=no],DayType  ! When Daily Report Variables Requested
4,2,Cumulative Days of Simulation[],Month[]  ! When Monthly Report Variables Requested
5,1,Cumulative Days of Simulation[] ! When Run Period Report Variables Requested
6,1,Calendar Year of Simulation[] ! When Annual Report Variables Requested
141,1,ZONE_0599100000163850 IDEAL LOADS AIR SYSTEM,Zone Ideal Loads Supply Air Total Heating Energy [J] !Hourly
190,1,ZONE_0599100000163850 IDEAL LOADS AIR SYSTEM,Zone Ideal Loads Supply Air Total Cooling Energy [J] !Hourly
End of Data Dictionary
1,RUN PERIOD 1,  51.96,   4.45,   1.00,  -4.50
2,1, 1, 1, 0, 1, 0.00,60.00,Sunday
141,97895330.27875921
190,0.0
2,1, 1, 1, 0, 2, 0.00,60.00,Sunday
141,101949766.58024704
190,0.0
2,1, 1, 1, 0, 3, 0.00,60.00,Sunday
141,101839248.61249095
190,0.0
2,1, 1, 1, 0, 4, 0.00,60.00,Sunday
141,104825450.47636814
190,0.0
2,1, 1, 1, 0, 5, 0.00,60.00,Sunday
141,106847804.38150421
190,0.0
2,1, 1, 1, 0, 6, 0.00,60.00,Sunday
141,107033799.88014981
190,0.0
2,1, 1, 1, 0, 7, 0.00,60.00,Sunday
141,107372925.14401688
190,0.0
2,1, 1, 1, 0, 8, 0.00,60.00,Sunday
141,107079136.22508663
190,0.0
2,1, 1, 1, 0, 9, 0.00,60.00,Sunday
141,106834856.0578243
190,0.0
2,1, 1, 1, 0,10, 0.00,60.00,Sunday
141,105863109.8959378
190,0.0
2,1, 1, 1, 0,11, 0.00,60.00,Sunday
141,103346657.76111156
190,0.0
2,1, 1, 1, 0,12, 0.00,60.00,Sunday
141,99265579.25118466
190,0.0
2,1, 1, 1, 0,13, 0.00,60.00,Sunday
141,97286499.21288517
190,0.0
2,1, 1, 1, 0,14, 0.00,60.00,Sunday
141,94540884.63461721
190,0.0
2,1, 1, 1, 0,15, 0.00,60.00,Sunday
141,92641098.1780613
190,0.0
2,1, 1, 1, 0,16, 0.00,60.00,Sunday
141,94553408.06715384
190,0.0
2,1, 1, 1, 0,17, 0.00,60.00,Sunday
141,96926735.05141489
190,0.0
2,1, 1, 1, 0,18, 0.00,60.00,Sunday
141,97642994.35133319
190,0.0
2,1, 1, 1, 0,19, 0.00,60.00,Sunday
141,98237510.90341845
190,0.0
2,1, 1, 1, 0,20, 0.00,60.00,Sunday
141,98020053.69680223
190,0.0
2,1, 1, 1, 0,21, 0.00,60.00,Sunday
141,97526159.78582363
190,0.0
2,1, 1, 1, 0,22, 0.00,60.00,Sunday
141,97684296.56740235
190,0.0
2,1, 1, 1, 0,23, 0.00,60.00,Sunday
141,94717517.96860366
190,0.0
2,1, 1, 1, 0,24, 0.00,60.00,Sunday
141,92498440.39755064
190,0.0
2,2, 1, 2, 0, 1, 0.00,60.00,Monday
141,92803462.11202922
190,0.0
2,2, 1, 2, 0, 2, 0.00,60.00,Monday
141,89841179.90485978
190,0.0
2,2, 1, 2, 0, 3, 0.00,60.00,Monday
141,87561221.05849436
190,0.0
2,2, 1, 2, 0, 4, 0.00,60.00,Monday
141,85261007.63937542
190,0.0
2,2, 1, 2, 0, 5, 0.00,60.00,Monday
141,80292970.54202083
190,0.0
2,2, 1, 2, 0, 6, 0.00,60.00,Monday
141,77916527.94098383
190,0.0
2,2, 1, 2, 0, 7, 0.00,60.00,Monday
141,74208286.7096431
190,0.0
2,2, 1, 2, 0, 8, 0.00,60.00,Monday
141,69699017.92982252
190,0.0
2,2, 1, 2, 0, 9, 0.00,60.00,Monday
141,71076437.91018532
190,0.0
2,2, 1, 2, 0,10, 0.00,60.00,Monday
141,74419802.04683952
190,0.0
2,2, 1, 2, 0,11, 0.00,60.00,Monday
141,76690165.61088614
190,0.0
2,2, 1, 2, 0,12, 0.00,60.00,Monday
141,74763698.65260302
190,0.0
2,2, 1, 2, 0,13, 0.00,60.00,Monday
141,73952741.56806435
190,0.0
2,2, 1, 2, 0,14, 0.00,60.00,Monday
141,76245280.1339277
190,0.0
2,2, 1, 2, 0,15, 0.00,60.00,Monday
141,77184214.29036628
190,0.0
2,2, 1, 2, 0,16, 0.00,60.00,Monday
141,79287992.9806754
190,0.0
2,2, 1, 2, 0,17, 0.00,60.00,Monday
141,81330940.9679485
190,0.0
2,2, 1, 2, 0,18, 0.00,60.00,Monday
141,81612742.36216661
190,0.0
2,2, 1, 2, 0,19, 0.00,60.00,Monday
141,83862368.24162142
190,0.0
2,2, 1, 2, 0,20, 0.00,60.00,Monday
141,85917591.4624375
190,0.0
2,2, 1, 2, 0,21, 0.00,60.00,Monday
141,86161123.11241895
190,0.0
2,2, 1, 2, 0,22, 0.00,60.00,Monday
141,85991242.19965428
190,0.0
2,2, 1, 2, 0,23, 0.00,60.00,Monday
141,85979782.70989397
190,0.0
2,2, 1, 2, 0,24, 0.00,60.00,Monday
141,86027463.893649
190,0.0
2,3, 1, 3, 0, 1, 0.00,60.00,Tuesday
141,86162439.09590313
190,0.0
2,3, 1, 3, 0, 2, 0.00,60.00,Tuesday
141,86110075.3105981
190,0.0
2,3, 1, 3, 0, 3, 0.00,60.00,Tuesday
141,86002630.19959119
190,0.0
2,3, 1, 3, 0, 4, 0.00,60.00,Tuesday
141,86353254.2763032
190,0.0
2,3, 1, 3, 0, 5, 0.00,60.00,Tuesday
141,89106495.6847857
190,0.0
2,3, 1, 3, 0, 6, 0.00,60.00,Tuesday
141,90901566.3239115
190,0.0
2,3, 1, 3, 0, 7, 0.00,60.00,Tuesday
141,91781923.36044411
190,0.0
2,3, 1, 3, 0, 8, 0.00,60.00,Tuesday
141,91579274.12324394
190,0.0
2,3, 1, 3, 0, 9, 0.00,60.00,Tuesday
141,93865168.05611327
190,0.0
2,3, 1, 3, 0,10, 0.00,60.00,Tuesday
141,94993657.78851469
190,0.0
2,3, 1, 3, 0,11, 0.00,60.00,Tuesday
141,95320648.49375187
190,0.0
2,3, 1, 3, 0,12, 0.00,60.00,Tuesday
141,96051985.33025461
190,0.0
2,3, 1, 3, 0,13, 0.00,60.00,Tuesday
141,99540358.88441123
190,0.0
2,3, 1, 3, 0,14, 0.00,60.00,Tuesday
141,101470283.74453428
190,0.0
2,3, 1, 3, 0,15, 0.00,60.00,Tuesday
141,101090064.72384694
190,0.0
2,3, 1, 3, 0,16, 0.00,60.00,Tuesday
141,100742118.40661451
190,0.0
2,3, 1, 3, 0,17, 0.00,60.00,Tuesday
141,100875457.65369272
190,0.0
2,3, 1, 3, 0,18, 0.00,60.00,Tuesday
141,101166914.25480086
190,0.0
2,3, 1, 3, 0,19, 0.00,60.00,Tuesday
141,100616582.43450674
190,0.0
2,3, 1, 3, 0,20, 0.00,60.00,Tuesday
141,97910001.43957347
190,0.0
2,3, 1, 3, 0,21, 0.00,60.00,Tuesday
141,90598092.42658651
190,0.0
2,3, 1, 3, 0,22, 0.00,60.00,Tuesday
141,86671381.38046314
190,0.0
2,3, 1, 3, 0,23, 0.00,60.00,Tuesday
141,89460602.88412122
190,0.0
2,3, 1, 3, 0,24, 0.00,60.00,Tuesday
141,94226124.0012821
190,0.0
2,4, 1, 4, 0, 1, 0.00,60.00,Wednesday
141,96601595.9488374
190,0.0
2,4, 1, 4, 0, 2, 0.00,60.00,Wednesday
141,96228215.13755523
190,0.0
2,4, 1, 4, 0, 3, 0.00,60.00,Wednesday
141,95509036.37965845
190,0.0
2,4, 1, 4, 0, 4, 0.00,60.00,Wednesday
141,96310548.51404402
190,0.0
2,4, 1, 4, 0, 5, 0.00,60.00,Wednesday
141,99476596.37259826
190,0.0
2,4, 1, 4, 0, 6, 0.00,60.00,Wednesday
141,98651497.93155657
190,0.0
2,4, 1, 4, 0, 7, 0.00,60.00,Wednesday
141,98512005.34626156
190,0.0
2,4, 1, 4, 0, 8, 0.00,60.00,Wednesday
141,99808380.69881558
190,0.0
2,4, 1, 4, 0, 9, 0.00,60.00,Wednesday
141,100762079.68993768
190,0.0
2,4, 1, 4, 0,10, 0.00,60.00,Wednesday
141,101544253.68449955
190,0.0
2,4, 1, 4, 0,11, 0.00,60.00,Wednesday
141,95861406.00873849
190,0.0
2,4, 1, 4, 0,12, 0.00,60.00,Wednesday
141,86213097.00226319
190,0.0
2,4, 1, 4, 0,13, 0.00,60.00,Wednesday
141,83658261.90769652
190,0.0
2,4, 1, 4, 0,14, 0.00,60.00,Wednesday
141,83356976.32627024
190,0.0
2,4, 1, 4, 0,15, 0.00,60.00,Wednesday
141,82468806.95697898
190,0.0
2,4, 1, 4, 0,16, 0.00,60.00,Wednesday
141,86477014.54317792
190,0.0
2,4, 1, 4, 0,17, 0.00,60.00,Wednesday
141,93621587.27162318
190,0.0
2,4, 1, 4, 0,18, 0.00,60.00,Wednesday
141,99789761.24608597
190,0.0
2,4, 1, 4, 0,19, 0.00,60.00,Wednesday
141,106032793.34741758
190,0.0
2,4, 1, 4, 0,20, 0.00,60.00,Wednesday
141,109256992.56129965
190,0.0
2,4, 1, 4, 0,21, 0.00,60.00,Wednesday
141,110644178.48828776
190,0.0
2,4, 1, 4, 0,22, 0.00,60.00,Wednesday
141,113561124.1338324
190,0.0
2,4, 1, 4, 0,23, 0.00,60.00,Wednesday
141,112077496.31454477
190,0.0
2,4, 1, 4, 0,24, 0.00,60.00,Wednesday
141,109678409.1436619
190,0.0
2,5, 1, 5, 0, 1, 0.00,60.00,Thursday
141,110334000.83172941
190,0.0
2,5, 1, 5, 0, 2, 0.00,60.00,Thursday
141,108650945.90025495
190,0.0
2,5, 1, 5, 0, 3, 0.00,60.00,Thursday
141,107047600.7651827
190,0.0
2,5, 1, 5, 0, 4, 0.00,60.00,Thursday
141,107270046.56819402
190,0.0
2,5, 1, 5, 0, 5, 0.00,60.00,Thursday
141,105533269.87455736
190,0.0
2,5, 1, 5, 0, 6, 0.00,60.00,Thursday
141,104822893.98697565
190,0.0
2,5, 1, 5, 0, 7, 0.00,60.00,Thursday
141,105996410.07575417
190,0.0
2,5, 1, 5, 0, 8, 0.00,60.00,Thursday
141,107052402.09626141
190,0.0
2,5, 1, 5, 0, 9, 0.00,60.00,Thursday
141,107477196.01858343
190,0.0
2,5, 1, 5, 0,10, 0.00,60.00,Thursday
141,109419046.12406676
190,0.0
2,5, 1, 5, 0,11, 0.00,60.00,Thursday
141,108978631.53858136
190,0.0
2,5, 1, 5, 0,12, 0.00,60.00,Thursday
141,104861299.93164134
190,0.0
2,5, 1, 5, 0,13, 0.00,60.00,Thursday
141,103435082.59281418
190,0.0
2,5, 1, 5, 0,14, 0.00,60.00,Thursday
141,100471281.28000349
190,0.0
2,5, 1, 5, 0,15, 0.00,60.00,Thursday
141,98111057.93288794
190,0.0
2,5, 1, 5, 0,16, 0.00,60.00,Thursday
141,100036958.39647606
190,0.0
2,5, 1, 5, 0,17, 0.00,60.00,Thursday
141,99514213.29956375
190,0.0
2,5, 1, 5, 0,18, 0.00,60.00,Thursday
141,98159153.53500906
190,0.0
2,5, 1, 5, 0,19, 0.00,60.00,Thursday
141,98788614.37489963
190,0.0
2,5, 1, 5, 0,20, 0.00,60.00,Thursday
141,98536676.37476674
190,0.0
2,5, 1, 5, 0,21, 0.00,60.00,Thursday
141,97983533.67226061
190,0.0
2,5, 1, 5, 0,22, 0.00,60.00,Thursday
141,97957860.42456272
190,0.0
2,5, 1, 5, 0,23, 0.00,60.00,Thursday
141,98481479.43738799
190,0.0
2,5, 1, 5, 0,24, 0.00,60.00,Thursday
141,99070947.02646522
190,0.0
2,6, 1, 6, 0, 1, 0.00,60.00,Friday
141,99439562.10619794
190,0.0
2,6, 1, 6, 0, 2, 0.00,60.00,Friday
141,99799169.58297965
190,0.0
2,6, 1, 6, 0, 3, 0.00,60.00,Friday
141,102505235.06379122
190,0.0
2,6, 1, 6, 0, 4, 0.00,60.00,Friday
141,105134393.24287096
190,0.0
2,6, 1, 6, 0, 5, 0.00,60.00,Friday
141,106489792.09239838
190,0.0
2,6, 1, 6, 0, 6, 0.00,60.00,Friday
141,108157118.9724878
190,0.0
2,6, 1, 6, 0, 7, 0.00,60.00,Friday
141,110642141.36410749
190,0.0
2,6, 1, 6, 0, 8, 0.00,60.00,Friday
141,112995502.46237668
190,0.0
2,6, 1, 6, 0, 9, 0.00,60.00,Friday
141,115842701.69285528
190,0.0
2,6, 1, 6, 0,10, 0.00,60.00,Friday
141,117532887.8533669
190,0.0
2,6, 1, 6, 0,11, 0.00,60.00,Friday
141,115621516.48027863
190,0.0
2,6, 1, 6, 0,12, 0.00,60.00,Friday
141,112650427.90805425
190,0.0
2,6, 1, 6, 0,13, 0.00,60.00,Friday
141,111264987.34409082
190,0.0
2,6, 1, 6, 0,14, 0.00,60.00,Friday
141,110736505.08135803
190,0.0
2,6, 1, 6, 0,15, 0.00,60.00,Friday
141,109984062.83310322
190,0.0
2,6, 1, 6, 0,16, 0.00,60.00,Friday
141,108161168.83124842
190,0.0
2,6, 1, 6, 0,17, 0.00,60.00,Friday
141,106261749.04645848
190,0.0
2,6, 1, 6, 0,18, 0.00,60.00,Friday
141,105357021.75080737
190,0.0
2,6, 1, 6, 0,19, 0.00,60.00,Friday
141,104278486.313838
190,0.0
2,6, 1, 6, 0,20, 0.00,60.00,Friday
141,101639556.90750489
190,0.0
2,6, 1, 6, 0,21, 0.00,60.00,Friday
141,95047527.14882775
190,0.0
2,6, 1, 6, 0,22, 0.00,60.00,Friday
141,87161692.57715727
190,0.0
2,6, 1, 6, 0,23, 0.00,60.00,Friday
141,83632702.75356236
190,0.0
2,6, 1, 6, 0,24, 0.00,60.00,Friday
141,84402114.48005307
190,0.0
2,7, 1, 7, 0, 1, 0.00,60.00,Saturday
141,90632243.78867467
190,0.0
2,7, 1, 7, 0, 2, 0.00,60.00,Saturday
141,96839529.31143734
190,0.0
2,7, 1, 7, 0, 3, 0.00,60.00,Saturday
141,95938563.72616866
190,0.0
2,7, 1, 7, 0, 4, 0.00,60.00,Saturday
141,96411632.52815011
190,0.0
2,7, 1, 7, 0, 5, 0.00,60.00,Saturday
141,100628115.28366584
190,0.0
2,7, 1, 7, 0, 6, 0.00,60.00,Saturday
141,103920945.29926294
190,0.0
2,7, 1, 7, 0, 7, 0.00,60.00,Saturday
141,105843062.94360386
190,0.0
2,7, 1, 7, 0, 8, 0.00,60.00,Saturday
141,106786123.4009456
190,0.0
2,7, 1, 7, 0, 9, 0.00,60.00,Saturday
141,104402434.12970828
190,0.0
2,7, 1, 7, 0,10, 0.00,60.00,Saturday
141,102283475.21426111
190,0.0
2,7, 1, 7, 0,11, 0.00,60.00,Saturday
141,96059631.85802557
190,0.0
2,7, 1, 7, 0,12, 0.00,60.00,Saturday
141,89808834.8415609
190,0.0
2,7, 1, 7, 0,13, 0.00,60.00,Saturday
141,85314884.69704318
190,0.0
2,7, 1, 7, 0,14, 0.00,60.00,Saturday
141,83133708.3739827
190,0.0
2,7, 1, 7, 0,15, 0.00,60.00,Saturday
141,84310030.71640915
190,0.0
2,7, 1, 7, 0,16, 0.00,60.00,Saturday
141,86594117.61163716
190,0.0
2,7, 1, 7, 0,17, 0.00,60.00,Saturday
141,88495335.3987136
190,0.0
2,7, 1, 7, 0,18, 0.00,60.00,Saturday
141,91649720.49356197
190,0.0
2,7, 1, 7, 0,19, 0.00,60.00,Saturday
141,94545785.1761851
190,0.0
2,7, 1, 7, 0,20, 0.00,60.00,Saturday
141,97286544.89883095
190,0.0
2,7, 1, 7, 0,21, 0.00,60.00,Saturday
141,99189734.87764901
190,0.0
2,7, 1, 7, 0,22, 0.00,60.00,Saturday
141,99168514.31957637
190,0.0
2,7, 1, 7, 0,23, 0.00,60.00,Saturday
141,99404505.51309633
190,0.0
2,7, 1, 7, 0,24, 0.00,60.00,Saturday
141,99097850.00174147
190,0.0
2,8, 1, 8, 0, 1, 0.00,60.00,Sunday
141,97113987.1277429
190,0.0
2,8, 1, 8, 0, 2, 0.00,60.00,Sunday
141,94828967.67611335
190,0.0
2,8, 1, 8, 0, 3, 0.00,60.00,Sunday
141,92768338.26278484
190,0.0
2,8, 1, 8, 0, 4, 0.00,60.00,Sunday
141,89877949.94152331
190,0.0
2,8, 1, 8, 0, 5, 0.00,60.00,Sunday
141,86397420.94278291
190,0.0
2,8, 1, 8, 0, 6, 0.00,60.00,Sunday
141,83791571.51986273
190,0.0
2,8, 1, 8, 0, 7, 0.00,60.00,Sunday
141,81810847.88758731
190,0.0
2,8, 1, 8, 0, 8, 0.00,60.00,Sunday
141,80121682.13707806
190,0.0
2,8, 1, 8, 0, 9, 0.00,60.00,Sunday
141,78362688.04166186
190,0.0
2,8, 1, 8, 0,10, 0.00,60.00,Sunday
141,77807432.11638452
190,0.0
2,8, 1, 8, 0,11, 0.00,60.00,Sunday
141,77385748.17050809
190,0.0
2,8, 1, 8, 0,12, 0.00,60.00,Sunday
141,77753738.90888605
190,0.0
2,8, 1, 8, 0,13, 0.00,60.00,Sunday
141,77434424.26072843
190,0.0
2,8, 1, 8, 0,14, 0.00,60.00,Sunday
141,77855624.04893163
190,0.0
2,8, 1, 8, 0,15, 0.00,60.00,Sunday
141,81689704.54174821
190,0.0
2,8, 1, 8, 0,16, 0.00,60.00,Sunday
141,84444398.69524649
190,0.0
2,8, 1, 8, 0,17, 0.00,60.00,Sunday
141,84564982.64006025
190,0.0
2,8, 1, 8, 0,18, 0.00,60.00,Sunday
141,85765927.58078705
190,0.0
2,8, 1, 8, 0,19, 0.00,60.00,Sunday
141,85075920.71477051
190,0.0
2,8, 1, 8, 0,20, 0.00,60.00,Sunday
141,82732210.66818032
190,0.0
2,8, 1, 8, 0,21, 0.00,60.00,Sunday
141,81046437.79004166
190,0.0
2,8, 1, 8, 0,22, 0.00,60.00,Sunday
141,81511760.74539754
190,0.0
2,8, 1, 8, 0,23, 0.00,60.00,Sunday
141,81959587.02674694
190,0.0
2,8, 1, 8, 0,24, 0.00,60.00,Sunday
141,83348191.44705275
190,0.0
2,9, 1, 9, 0, 1, 0.00,60.00,Monday
141,83633029.68481556
190,0.0
2,9, 1, 9, 0, 2, 0.00,60.00,Monday
141,83820558.10240084
190,0.0
2,9, 1, 9, 0, 3, 0.00,60.00,Monday
141,83520110.36668615
190,0.0
2,9, 1, 9, 0, 4, 0.00,60.00,Monday
141,82715776.87029493
190,0.0
2,9, 1, 9, 0, 5, 0.00,60.00,Monday
141,80868033.22853291
190,0.0
2,9, 1, 9, 0, 6, 0.00,60.00,Monday
141,79006967.728911
190,0.0
2,9, 1, 9, 0, 7, 0.00,60.00,Monday
141,77689578.93225822
190,0.0
2,9, 1, 9, 0, 8, 0.00,60.00,Monday
141,77013979.67086351
190,0.0
2,9, 1, 9, 0, 9, 0.00,60.00,Monday
141,75029556.88751963
190,0.0
2,9, 1, 9, 0,10, 0.00,60.00,Monday
141,70088663.60032731
190,0.0
2,9, 1, 9, 0,11, 0.00,60.00,Monday
141,65887108.27028845
190,0.0
2,9, 1, 9, 0,12, 0.00,60.00,Monday
141,63591669.55693068
190,0.0
2,9, 1, 9, 0,13, 0.00,60.00,Monday
141,61703492.33739819
190,0.0
2,9, 1, 9, 0,14, 0.00,60.00,Monday
141,60340249.44435222
190,0.0
2,9, 1, 9, 0,15, 0.00,60.00,Monday
141,59902714.57849965
190,0.0
2,9, 1, 9, 0,16, 0.00,60.00,Monday
141,60953530.092754826
190,0.0
2,9, 1, 9, 0,17, 0.00,60.00,Monday
141,64392367.43310971
190,0.0
2,9, 1, 9, 0,18, 0.00,60.00,Monday
141,67628944.23732731
190,0.0
2,9, 1, 9, 0,19, 0.00,60.00,Monday
141,67378612.58066559
190,0.0
2,9, 1, 9, 0,20, 0.00,60.00,Monday
141,62882816.89799923
190,0.0
2,9, 1, 9, 0,21, 0.00,60.00,Monday
141,58338226.90665439
190,0.0
2,9, 1, 9, 0,22, 0.00,60.00,Monday
141,55553550.88389612
190,0.0
2,9, 1, 9, 0,23, 0.00,60.00,Monday
141,55037614.316027835
190,0.0
2,9, 1, 9, 0,24, 0.00,60.00,Monday
141,55329220.76345257
190,0.0
2,10, 1,10, 0, 1, 0.00,60.00,Tuesday
141,56587179.76905348
190,0.0
2,10, 1,10, 0, 2, 0.00,60.00,Tuesday
141,57450908.834895305
190,0.0
2,10, 1,10, 0, 3, 0.00,60.00,Tuesday
141,57613908.94966227
190,0.0
2,10, 1,10, 0, 4, 0.00,60.00,Tuesday
141,59023570.11392015
190,0.0
2,10, 1,10, 0, 5, 0.00,60.00,Tuesday
141,59554989.18065779
190,0.0
2,10, 1,10, 0, 6, 0.00,60.00,Tuesday
141,59745358.389251985
190,0.0
2,10, 1,10, 0, 7, 0.00,60.00,Tuesday
141,59972361.98869655
190,0.0
2,10, 1,10, 0, 8, 0.00,60.00,Tuesday
141,59532577.70458761
190,0.0
2,10, 1,10, 0, 9, 0.00,60.00,Tuesday
141,58889208.9059293
190,0.0
2,10, 1,10, 0,10, 0.00,60.00,Tuesday
141,57999155.9712997
190,0.0
2,10, 1,10, 0,11, 0.00,60.00,Tuesday
141,56673132.9018918
190,0.0
2,10, 1,10, 0,12, 0.00,60.00,Tuesday
141,55150942.00034703
190,0.0
2,10, 1,10, 0,13, 0.00,60.00,Tuesday
141,54979895.273984626
190,0.0
2,10, 1,10, 0,14, 0.00,60.00,Tuesday
141,60948767.105373025
190,0.0
2,10, 1,10, 0,15, 0.00,60.00,Tuesday
141,65794371.45709541
190,0.0
2,10, 1,10, 0,16, 0.00,60.00,Tuesday
141,68816214.69809341
190,0.0
2,10, 1,10, 0,17, 0.00,60.00,Tuesday
141,71923916.93093033
190,0.0
2,10, 1,10, 0,18, 0.00,60.00,Tuesday
141,75925599.57045293
190,0.0
2,10, 1,10, 0,19, 0.00,60.00,Tuesday
141,78089181.87251034
190,0.0
2,10, 1,10, 0,20, 0.00,60.00,Tuesday
141,79740352.90162586
190,0.0
2,10, 1,10, 0,21, 0.00,60.00,Tuesday
141,82306323.66049832
190,0.0
2,10, 1,10, 0,22, 0.00,60.00,Tuesday
141,83830262.48586325
190,0.0
2,10, 1,10, 0,23, 0.00,60.00,Tuesday
141,83089202.0815962
190,0.0
2,10, 1,10, 0,24, 0.00,60.00,Tuesday
141,84847668.68366359
190,0.0
2,11, 1,11, 0, 1, 0.00,60.00,Wednesday
141,85271524.018
190,0.0
2,11, 1,11, 0, 2, 0.00,60.00,Wednesday
141,85702881.57078314
190,0.0
2,11, 1,11, 0, 3, 0.00,60.00,Wednesday
141,86775866.22851533
190,0.0
2,11, 1,11, 0, 4, 0.00,60.00,Wednesday
141,85731801.64899476
190,0.0
2,11, 1,11, 0, 5, 0.00,60.00,Wednesday
141,85041662.33137216
190,0.0
2,11, 1,11, 0, 6, 0.00,60.00,Wednesday
141,84904538.34511986
190,0.0
2,11, 1,11, 0, 7, 0.00,60.00,Wednesday
141,85443095.74364896
190,0.0
2,11, 1,11, 0, 8, 0.00,60.00,Wednesday
141,86050845.59318304
190,0.0
2,11, 1,11, 0, 9, 0.00,60.00,Wednesday
141,86004782.36848666
190,0.0
2,11, 1,11, 0,10, 0.00,60.00,Wednesday
141,85503830.10127096
190,0.0
2,11, 1,11, 0,11, 0.00,60.00,Wednesday
141,84505190.67993574
190,0.0
2,11, 1,11, 0,12, 0.00,60.00,Wednesday
141,82732669.84528428
190,0.0
2,11, 1,11, 0,13, 0.00,60.00,Wednesday
141,81389013.17056826
190,0.0
2,11, 1,11, 0,14, 0.00,60.00,Wednesday
141,80894009.17785193
190,0.0
2,11, 1,11, 0,15, 0.00,60.00,Wednesday
141,80847695.46173316
190,0.0
2,11, 1,11, 0,16, 0.00,60.00,Wednesday
141,80989598.80878864
190,0.0
2,11, 1,11, 0,17, 0.00,60.00,Wednesday
141,79985655.61887908
190,0.0
2,11, 1,11, 0,18, 0.00,60.00,Wednesday
141,78988231.721925
190,0.0
2,11, 1,11, 0,19, 0.00,60.00,Wednesday
141,78267798.5259842
190,0.0
2,11, 1,11, 0,20, 0.00,60.00,Wednesday
141,78145399.66702184
190,0.0
2,11, 1,11, 0,21, 0.00,60.00,Wednesday
141,78053443.34993212
190,0.0
2,11, 1,11, 0,22, 0.00,60.00,Wednesday
141,75870769.20057547
190,0.0
2,11, 1,11, 0,23, 0.00,60.00,Wednesday
141,74172283.91510709
190,0.0
2,11, 1,11, 0,24, 0.00,60.00,Wednesday
141,74237247.15615952
190,0.0
2,12, 1,12, 0, 1, 0.00,60.00,Thursday
141,74967371.03998096
190,0.0
2,12, 1,12, 0, 2, 0.00,60.00,Thursday
141,75034089.10950619
190,0.0
2,12, 1,12, 0, 3, 0.00,60.00,Thursday
141,74506841.35194239
190,0.0
2,12, 1,12, 0, 4, 0.00,60.00,Thursday
141,74553262.2582063
190,0.0
2,12, 1,12, 0, 5, 0.00,60.00,Thursday
141,75273120.10897301
190,0.0
2,12, 1,12, 0, 6, 0.00,60.00,Thursday
141,77004221.66484295
190,0.0
2,12, 1,12, 0, 7, 0.00,60.00,Thursday
141,77938698.04804897
190,0.0
2,12, 1,12, 0, 8, 0.00,60.00,Thursday
141,78165252.89499208
190,0.0
2,12, 1,12, 0, 9, 0.00,60.00,Thursday
141,76934988.32866122
190,0.0
2,12, 1,12, 0,10, 0.00,60.00,Thursday
141,74263203.33285269
190,0.0
2,12, 1,12, 0,11, 0.00,60.00,Thursday
141,72227933.21193567
190,0.0
2,12, 1,12, 0,12, 0.00,60.00,Thursday
141,71062683.63057032
190,0.0
2,12, 1,12, 0,13, 0.00,60.00,Thursday
141,69533810.36472496
190,0.0
2,12, 1,12, 0,14, 0.00,60.00,Thursday
141,67880584.91166143
190,0.0
2,12, 1,12, 0,15, 0.00,60.00,Thursday
141,67805860.88616717
190,0.0
2,12, 1,12, 0,16, 0.00,60.00,Thursday
141,68443687.12636144
190,0.0
2,12, 1,12, 0,17, 0.00,60.00,Thursday
141,71635508.29549746
190,0.0
2,12, 1,12, 0,18, 0.00,60.00,Thursday
141,73488385.4359557
190,0.0
2,12, 1,12, 0,19, 0.00,60.00,Thursday
141,72696501.94959164
190,0.0
2,12, 1,12, 0,20, 0.00,60.00,Thursday
141,70881546.02786681
190,0.0
2,12, 1,12, 0,21, 0.00,60.00,Thursday
141,70120840.2623708
190,0.0
2,12, 1,12, 0,22, 0.00,60.00,Thursday
141,68882664.89724913
190,0.0
2,12, 1,12, 0,23, 0.00,60.00,Thursday
141,68399149.25137147
190,0.0
2,12, 1,12, 0,24, 0.00,60.00,Thursday
141,68456954.0295988
190,0.0
2,13, 1,13, 0, 1, 0.00,60.00,Friday
141,67642097.989275
190,0.0
2,13, 1,13, 0, 2, 0.00,60.00,Friday
141,66893369.75458051
190,0.0
2,13, 1,13, 0, 3, 0.00,60.00,Friday
141,65787994.67507932
190,0.0
2,13, 1,13, 0, 4, 0.00,60.00,Friday
141,65106647.42665103
190,0.0
2,13, 1,13, 0, 5, 0.00,60.00,Friday
141,65017161.181223385
190,0.0
2,13, 1,13, 0, 6, 0.00,60.00,Friday
141,65203666.009931736
190,0.0
2,13, 1,13, 0, 7, 0.00,60.00,Friday
141,65848625.78066816
190,0.0
2,13, 1,13, 0, 8, 0.00,60.00,Friday
141,65864508.85788328
190,0.0
2,13, 1,13, 0, 9, 0.00,60.00,Friday
141,65035093.72827059
190,0.0
2,13, 1,13, 0,10, 0.00,60.00,Friday
141,67013659.350163534
190,0.0
2,13, 1,13, 0,11, 0.00,60.00,Friday
141,69233331.345283
190,0.0
2,13, 1,13, 0,12, 0.00,60.00,Friday
141,69354312.9146577
190,0.0
2,13, 1,13, 0,13, 0.00,60.00,Friday
141,69599966.81696402
190,0.0
2,13, 1,13, 0,14, 0.00,60.00,Friday
141,70961559.48715898
190,0.0
2,13, 1,13, 0,15, 0.00,60.00,Friday
141,71690104.59491546
190,0.0
2,13, 1,13, 0,16, 0.00,60.00,Friday
141,71381051.7278635
190,0.0
2,13, 1,13, 0,17, 0.00,60.00,Friday
141,70875124.03467838
190,0.0
2,13, 1,13, 0,18, 0.00,60.00,Friday
141,70626569.94983181
190,0.0
2,13, 1,13, 0,19, 0.00,60.00,Friday
141,71934570.88123369
190,0.0
2,13, 1,13, 0,20, 0.00,60.00,Friday
141,74275196.925675
190,0.0
2,13, 1,13, 0,21, 0.00,60.00,Friday
141,76374368.74707751
190,0.0
2,13, 1,13, 0,22, 0.00,60.00,Friday
141,77712819.91788729
190,0.0
2,13, 1,13, 0,23, 0.00,60.00,Friday
141,77255156.91023053
190,0.0
2,13, 1,13, 0,24, 0.00,60.00,Friday
141,82750741.56444925
190,0.0
2,14, 1,14, 0, 1, 0.00,60.00,Saturday
141,86553255.92257224
190,0.0
2,14, 1,14, 0, 2, 0.00,60.00,Saturday
141,85043150.67854834
190,0.0
2,14, 1,14, 0, 3, 0.00,60.00,Saturday
141,85425515.72520255
190,0.0
2,14, 1,14, 0, 4, 0.00,60.00,Saturday
141,84910294.09927277
190,0.0
2,14, 1,14, 0, 5, 0.00,60.00,Saturday
141,84822166.4302596
190,0.0
2,14, 1,14, 0, 6, 0.00,60.00,Saturday
141,88879358.44106132
190,0.0
2,14, 1,14, 0, 7, 0.00,60.00,Saturday
141,91941501.99130164
190,0.0
2,14, 1,14, 0, 8, 0.00,60.00,Saturday
141,91025074.59089155
190,0.0
2,14, 1,14, 0, 9, 0.00,60.00,Saturday
141,92666378.99442495
190,0.0
2,14, 1,14, 0,10, 0.00,60.00,Saturday
141,94857572.46943022
190,0.0
2,14, 1,14, 0,11, 0.00,60.00,Saturday
141,94016875.79759005
190,0.0
2,14, 1,14, 0,12, 0.00,60.00,Saturday
141,92741389.35824817
190,0.0
2,14, 1,14, 0,13, 0.00,60.00,Saturday
141,90494419.10098895
190,0.0
2,14, 1,14, 0,14, 0.00,60.00,Saturday
141,85891606.28194802
190,0.0
2,14, 1,14, 0,15, 0.00,60.00,Saturday
141,85371043.83430296
190,0.0
2,14, 1,14, 0,16, 0.00,60.00,Saturday
141,86489487.36956443
190,0.0
2,14, 1,14, 0,17, 0.00,60.00,Saturday
141,88418341.31045273
190,0.0
2,14, 1,14, 0,18, 0.00,60.00,Saturday
141,91925472.94555654
190,0.0
2,14, 1,14, 0,19, 0.00,60.00,Saturday
141,92009100.21802896
190,0.0
2,14, 1,14, 0,20, 0.00,60.00,Saturday
141,92467022.92616336
190,0.0
2,14, 1,14, 0,21, 0.00,60.00,Saturday
141,91799582.4006813
190,0.0
2,14, 1,14, 0,22, 0.00,60.00,Saturday
141,90582444.82076399
190,0.0
2,14, 1,14, 0,23, 0.00,60.00,Saturday
141,89707520.19606808
190,0.0
2,14, 1,14, 0,24, 0.00,60.00,Saturday
141,89345086.45308656
190,0.0
2,15, 1,15, 0, 1, 0.00,60.00,Sunday
141,87254717.99265164
190,0.0
2,15, 1,15, 0, 2, 0.00,60.00,Sunday
141,82294163.17784366
190,0.0
2,15, 1,15, 0, 3, 0.00,60.00,Sunday
141,79903381.62526533
190,0.0
2,15, 1,15, 0, 4, 0.00,60.00,Sunday
141,78241458.62791666
190,0.0
2,15, 1,15, 0, 5, 0.00,60.00,Sunday
141,75150699.13104275
190,0.0
2,15, 1,15, 0, 6, 0.00,60.00,Sunday
141,71894289.93760303
190,0.0
2,15, 1,15, 0, 7, 0.00,60.00,Sunday
141,68677051.48330057
190,0.0
2,15, 1,15, 0, 8, 0.00,60.00,Sunday
141,66560852.70327881
190,0.0
2,15, 1,15, 0, 9, 0.00,60.00,Sunday
141,64956150.840456404
190,0.0
2,15, 1,15, 0,10, 0.00,60.00,Sunday
141,64752303.92945494
190,0.0
2,15, 1,15, 0,11, 0.00,60.00,Sunday
141,66512845.51529941
190,0.0
2,15, 1,15, 0,12, 0.00,60.00,Sunday
141,71012741.2018307
190,0.0
2,15, 1,15, 0,13, 0.00,60.00,Sunday
141,74321597.95969877
190,0.0
2,15, 1,15, 0,14, 0.00,60.00,Sunday
141,75662980.13329697
190,0.0
2,15, 1,15, 0,15, 0.00,60.00,Sunday
141,76159674.57907
190,0.0
2,15, 1,15, 0,16, 0.00,60.00,Sunday
141,74997665.25925396
190,0.0
2,15, 1,15, 0,17, 0.00,60.00,Sunday
141,74174269.49249783
190,0.0
2,15, 1,15, 0,18, 0.00,60.00,Sunday
141,74391712.8710166
190,0.0
2,15, 1,15, 0,19, 0.00,60.00,Sunday
141,75077563.8119596
190,0.0
2,15, 1,15, 0,20, 0.00,60.00,Sunday
141,75983787.2736403
190,0.0
2,15, 1,15, 0,21, 0.00,60.00,Sunday
141,77989943.64309216
190,0.0
2,15, 1,15, 0,22, 0.00,60.00,Sunday
141,78856524.38239647
190,0.0
2,15, 1,15, 0,23, 0.00,60.00,Sunday
141,78908422.31399618
190,0.0
2,15, 1,15, 0,24, 0.00,60.00,Sunday
141,79373955.42194907
190,0.0
2,16, 1,16, 0, 1, 0.00,60.00,Monday
141,81221367.6323378
190,0.0
2,16, 1,16, 0, 2, 0.00,60.00,Monday
141,82957034.5414785
190,0.0
2,16, 1,16, 0, 3, 0.00,60.00,Monday
141,83922200.32538693
190,0.0
2,16, 1,16, 0, 4, 0.00,60.00,Monday
141,84627529.85752152
190,0.0
2,16, 1,16, 0, 5, 0.00,60.00,Monday
141,85707055.4057878
190,0.0
2,16, 1,16, 0, 6, 0.00,60.00,Monday
141,86642689.01326415
190,0.0
2,16, 1,16, 0, 7, 0.00,60.00,Monday
141,88580151.0225472
190,0.0
2,16, 1,16, 0, 8, 0.00,60.00,Monday
141,90410159.74180782
190,0.0
2,16, 1,16, 0, 9, 0.00,60.00,Monday
141,91208035.28611434
190,0.0
2,16, 1,16, 0,10, 0.00,60.00,Monday
141,91250301.40924434
190,0.0
2,16, 1,16, 0,11, 0.00,60.00,Monday
141,87224723.91889551
190,0.0
2,16, 1,16, 0,12, 0.00,60.00,Monday
141,83682877.00981688
190,0.0
2,16, 1,16, 0,13, 0.00,60.00,Monday
141,80953442.5098832
190,0.0
2,16, 1,16, 0,14, 0.00,60.00,Monday
141,79176675.29080725
190,0.0
2,16, 1,16, 0,15, 0.00,60.00,Monday
141,79059433.61597794
190,0.0
2,16, 1,16, 0,16, 0.00,60.00,Monday
141,79952822.03250498
190,0.0
2,16, 1,16, 0,17, 0.00,60.00,Monday
141,82009727.32908027
190,0.0
2,16, 1,16, 0,18, 0.00,60.00,Monday
141,85874901.86722852
190,0.0
2,16, 1,16, 0,19, 0.00,60.00,Monday
141,89914473.79734471
190,0.0
2,16, 1,16, 0,20, 0.00,60.00,Monday
141,91942675.02963822
190,0.0
2,16, 1,16, 0,21, 0.00,60.00,Monday
141,93528984.55958113
190,0.0
2,16, 1,16, 0,22, 0.00,60.00,Monday
141,94961813.70487238
190,0.0
2,16, 1,16, 0,23, 0.00,60.00,Monday
141,97146613.55818929
190,0.0
2,16, 1,16, 0,24, 0.00,60.00,Monday
141,97597452.78010999
190,0.0
2,17, 1,17, 0, 1, 0.00,60.00,Tuesday
141,98217824.68973394
190,0.0
2,17, 1,17, 0, 2, 0.00,60.00,Tuesday
141,100844907.22928463
190,0.0
2,17, 1,17, 0, 3, 0.00,60.00,Tuesday
141,103013734.20798272
190,0.0
2,17, 1,17, 0, 4, 0.00,60.00,Tuesday
141,104845798.84730971
190,0.0
2,17, 1,17, 0, 5, 0.00,60.00,Tuesday
141,106899429.29174921
190,0.0
2,17, 1,17, 0, 6, 0.00,60.00,Tuesday
141,108973730.16350403
190,0.0
2,17, 1,17, 0, 7, 0.00,60.00,Tuesday
141,110192213.07470222
190,0.0
2,17, 1,17, 0, 8, 0.00,60.00,Tuesday
141,110823075.04101
190,0.0
2,17, 1,17, 0, 9, 0.00,60.00,Tuesday
141,110918695.48117864
190,0.0
2,17, 1,17, 0,10, 0.00,60.00,Tuesday
141,106247892.35372308
190,0.0
2,17, 1,17, 0,11, 0.00,60.00,Tuesday
141,99388595.97741675
190,0.0
2,17, 1,17, 0,12, 0.00,60.00,Tuesday
141,93498260.37144832
190,0.0
2,17, 1,17, 0,13, 0.00,60.00,Tuesday
141,90115702.68653233
190,0.0
2,17, 1,17, 0,14, 0.00,60.00,Tuesday
141,89480268.78397684
190,0.0
2,17, 1,17, 0,15, 0.00,60.00,Tuesday
141,90752152.45147802
190,0.0
2,17, 1,17, 0,16, 0.00,60.00,Tuesday
141,94243338.14863777
190,0.0
2,17, 1,17, 0,17, 0.00,60.00,Tuesday
141,97024550.99955565
190,0.0
2,17, 1,17, 0,18, 0.00,60.00,Tuesday
141,97387113.5693737
190,0.0
2,17, 1,17, 0,19, 0.00,60.00,Tuesday
141,97169872.96642497
190,0.0
2,17, 1,17, 0,20, 0.00,60.00,Tuesday
141,97727479.33544381
190,0.0
2,17, 1,17, 0,21, 0.00,60.00,Tuesday
141,98666480.95808013
190,0.0
2,17, 1,17, 0,22, 0.00,60.00,Tuesday
141,98719347.30751675
190,0.0
2,17, 1,17, 0,23, 0.00,60.00,Tuesday
141,98724161.40815061
190,0.0
2,17, 1,17, 0,24, 0.00,60.00,Tuesday
141,100010563.72946075
190,0.0
2,18, 1,18, 0, 1, 0.00,60.00,Wednesday
141,100770865.37681392
190,0.0
2,18, 1,18, 0, 2, 0.00,60.00,Wednesday
141,101279681.80694981
190,0.0
2,18, 1,18, 0, 3, 0.00,60.00,Wednesday
141,101339179.78426203
190,0.0
2,18, 1,18, 0, 4, 0.00,60.00,Wednesday
141,101082662.57739928
190,0.0
2,18, 1,18, 0, 5, 0.00,60.00,Wednesday
141,101049619.60964634
190,0.0
2,18, 1,18, 0, 6, 0.00,60.00,Wednesday
141,101311848.75964212
190,0.0
2,18, 1,18, 0, 7, 0.00,60.00,Wednesday
141,103517035.99574795
190,0.0
2,18, 1,18, 0, 8, 0.00,60.00,Wednesday
141,104110382.31892061
190,0.0
2,18, 1,18, 0, 9, 0.00,60.00,Wednesday
141,104397355.54874662
190,0.0
2,18, 1,18, 0,10, 0.00,60.00,Wednesday
141,104184107.5265413
190,0.0
2,18, 1,18, 0,11, 0.00,60.00,Wednesday
141,101884434.05714642
190,0.0
2,18, 1,18, 0,12, 0.00,60.00,Wednesday
141,100125129.25635833
190,0.0
2,18, 1,18, 0,13, 0.00,60.00,Wednesday
141,100890590.72892743
190,0.0
2,18, 1,18, 0,14, 0.00,60.00,Wednesday
141,102586301.46582203
190,0.0
2,18, 1,18, 0,15, 0.00,60.00,Wednesday
141,103502929.02662815
190,0.0
2,18, 1,18, 0,16, 0.00,60.00,Wednesday
141,105458467.70107989
190,0.0
2,18, 1,18, 0,17, 0.00,60.00,Wednesday
141,106425611.68545406
190,0.0
2,18, 1,18, 0,18, 0.00,60.00,Wednesday
141,105645489.88693279
190,0.0
2,18, 1,18, 0,19, 0.00,60.00,Wednesday
141,105236017.1842731
190,0.0
2,18, 1,18, 0,20, 0.00,60.00,Wednesday
141,105524302.19254737
190,0.0
2,18, 1,18, 0,21, 0.00,60.00,Wednesday
141,105712078.252332
190,0.0
2,18, 1,18, 0,22, 0.00,60.00,Wednesday
141,106286507.91671132
190,0.0
2,18, 1,18, 0,23, 0.00,60.00,Wednesday
141,106692094.89697206
190,0.0
2,18, 1,18, 0,24, 0.00,60.00,Wednesday
141,107261040.99627706
190,0.0
2,19, 1,19, 0, 1, 0.00,60.00,Thursday
141,106507175.75089246
190,0.0
2,19, 1,19, 0, 2, 0.00,60.00,Thursday
141,106830595.96599072
190,0.0
2,19, 1,19, 0, 3, 0.00,60.00,Thursday
141,108815562.13011864
190,0.0
2,19, 1,19, 0, 4, 0.00,60.00,Thursday