Program Version,EnergyPlus, Version 24.2.0-94a887817b, YMD=2025.04.24 13:19
1,5,Environment Title[],Latitude[deg],Longitude[deg],Time Zone[],Elevation[m]
2,8,Day of Simulation[],Month[],Day of Month[],DST Indicator[1=yes 0=no],Hour[],StartMinute[],EndMinute[],DayType
3,5,Cumulative Day of Simulation[],Month[],Day of Month[],DST Indicator[1=yes 0=no],DayType  ! When Daily Report Variables Requested
4,2,Cumulative Days of Simulation[],Month[]  ! When Monthly Report Variables Requested
5,1,Cumulative Days of Simulation[] ! When Run Period Report Variables Requested
6,1,Calendar Year of Simulation[] ! When Annual Report Variables Requested
141,1,ZONE_0599100000138561 IDEAL LOADS AIR SYSTEM,Zone Ideal Loads Supply Air Total Heating Energy [J] !Hourly
190,1,ZONE_0599100000138561 IDEAL LOADS AIR SYSTEM,Zone Ideal Loads Supply Air Total Cooling Energy [J] !Hourly
End of Data Dictionary
1,RUN PERIOD 1,  51.96,   4.45,   1.00,  -4.50
2,1, 1, 1, 0, 1, 0.00,60.00,Sunday
141,45721689.90487509
190,0.0
2,1, 1, 1, 0, 2, 0.00,60.00,Sunday
141,46843804.075618796
190,0.0
2,1, 1, 1, 0, 3, 0.00,60.00,Sunday
141,46883797.27381837
190,0.0
2,1, 1, 1, 0, 4, 0.00,60.00,Sunday
141,47737155.343360245
190,0.0
2,1, 1, 1, 0, 5, 0.00,60.00,Sunday
141,48372916.38183999
190,0.0
2,1, 1, 1, 0, 6, 0.00,60.00,Sunday
141,48567332.35494204
190,0.0
2,1, 1, 1, 0, 7, 0.00,60.00,Sunday
141,48829922.98683487
190,0.0
2,1, 1, 1, 0, 8, 0.00,60.00,Sunday
141,48952432.91456502
190,0.0
2,1, 1, 1, 0, 9, 0.00,60.00,Sunday
141,49104623.10981607
190,0.0
2,1, 1, 1, 0,10, 0.00,60.00,Sunday
141,49079868.24874082
190,0.0
2,1, 1, 1, 0,11, 0.00,60.00,Sunday
141,48656757.916357554
190,0.0
2,1, 1, 1, 0,12, 0.00,60.00,Sunday
141,47793021.28040513
190,0.0
2,1, 1, 1, 0,13, 0.00,60.00,Sunday
141,47373196.211875424
190,0.0
2,1, 1, 1, 0,14, 0.00,60.00,Sunday
141,46607623.90486543
190,0.0
2,1, 1, 1, 0,15, 0.00,60.00,Sunday
141,45893475.92060477
190,0.0
2,1, 1, 1, 0,16, 0.00,60.00,Sunday
141,46031813.51598762
190,0.0
2,1, 1, 1, 0,17, 0.00,60.00,Sunday
141,46237618.27507903
190,0.0
2,1, 1, 1, 0,18, 0.00,60.00,Sunday
141,46048837.0292044
190,0.0
2,1, 1, 1, 0,19, 0.00,60.00,Sunday
141,45918469.13868529
190,0.0
2,1, 1, 1, 0,20, 0.00,60.00,Sunday
141,45687383.57389931
190,0.0
2,1, 1, 1, 0,21, 0.00,60.00,Sunday
141,45481159.78090813
190,0.0
2,1, 1, 1, 0,22, 0.00,60.00,Sunday
141,45516315.626797974
190,0.0
2,1, 1, 1, 0,23, 0.00,60.00,Sunday
141,44793700.46015032
190,0.0
2,1, 1, 1, 0,24, 0.00,60.00,Sunday
141,44292162.757608995
190,0.0
2,2, 1, 2, 0, 1, 0.00,60.00,Monday
141,44451002.356536694
190,0.0
2,2, 1, 2, 0, 2, 0.00,60.00,Monday
141,43758287.72768462
190,0.0
2,2, 1, 2, 0, 3, 0.00,60.00,Monday
141,43222408.578977354
190,0.0
2,2, 1, 2, 0, 4, 0.00,60.00,Monday
141,42654318.39797378
190,0.0
2,2, 1, 2, 0, 5, 0.00,60.00,Monday
141,41360939.37438189
190,0.0
2,2, 1, 2, 0, 6, 0.00,60.00,Monday
141,40692735.68426983
190,0.0
2,2, 1, 2, 0, 7, 0.00,60.00,Monday
141,39632097.730347
190,0.0
2,2, 1, 2, 0, 8, 0.00,60.00,Monday
141,38310002.56526156
190,0.0
2,2, 1, 2, 0, 9, 0.00,60.00,Monday
141,38451600.81670398
190,0.0
2,2, 1, 2, 0,10, 0.00,60.00,Monday
141,39049758.38088822
190,0.0
2,2, 1, 2, 0,11, 0.00,60.00,Monday
141,39329973.54832255
190,0.0
2,2, 1, 2, 0,12, 0.00,60.00,Monday
141,38521317.14519283
190,0.0
2,2, 1, 2, 0,13, 0.00,60.00,Monday
141,38074077.81645068
190,0.0
2,2, 1, 2, 0,14, 0.00,60.00,Monday
141,38544258.68242422
190,0.0
2,2, 1, 2, 0,15, 0.00,60.00,Monday
141,38761364.80424379
190,0.0
2,2, 1, 2, 0,16, 0.00,60.00,Monday
141,39346638.06149745
190,0.0
2,2, 1, 2, 0,17, 0.00,60.00,Monday
141,39972031.1100157
190,0.0
2,2, 1, 2, 0,18, 0.00,60.00,Monday
141,40192601.44297727
190,0.0
2,2, 1, 2, 0,19, 0.00,60.00,Monday
141,40962792.67766895
190,0.0
2,2, 1, 2, 0,20, 0.00,60.00,Monday
141,41715816.95536149
190,0.0
2,2, 1, 2, 0,21, 0.00,60.00,Monday
141,42025399.942986615
190,0.0
2,2, 1, 2, 0,22, 0.00,60.00,Monday
141,42250059.94789928
190,0.0
2,2, 1, 2, 0,23, 0.00,60.00,Monday
141,42534877.393213205
190,0.0
2,2, 1, 2, 0,24, 0.00,60.00,Monday
141,42839945.70374934
190,0.0
2,3, 1, 3, 0, 1, 0.00,60.00,Tuesday
141,43156825.31352648
190,0.0
2,3, 1, 3, 0, 2, 0.00,60.00,Tuesday
141,43406882.01391839
190,0.0
2,3, 1, 3, 0, 3, 0.00,60.00,Tuesday
141,43613424.93492474
190,0.0
2,3, 1, 3, 0, 4, 0.00,60.00,Tuesday
141,43880902.245355494
190,0.0
2,3, 1, 3, 0, 5, 0.00,60.00,Tuesday
141,44695618.08362762
190,0.0
2,3, 1, 3, 0, 6, 0.00,60.00,Tuesday
141,45194815.69901258
190,0.0
2,3, 1, 3, 0, 7, 0.00,60.00,Tuesday
141,45407069.57129848
190,0.0
2,3, 1, 3, 0, 8, 0.00,60.00,Tuesday
141,45305755.76080308
190,0.0
2,3, 1, 3, 0, 9, 0.00,60.00,Tuesday
141,45829715.995398305
190,0.0
2,3, 1, 3, 0,10, 0.00,60.00,Tuesday
141,46048272.0084757
190,0.0
2,3, 1, 3, 0,11, 0.00,60.00,Tuesday
141,46058014.94946365
190,0.0
2,3, 1, 3, 0,12, 0.00,60.00,Tuesday
141,46180139.01598392
190,0.0
2,3, 1, 3, 0,13, 0.00,60.00,Tuesday
141,47048570.606395386
190,0.0
2,3, 1, 3, 0,14, 0.00,60.00,Tuesday
141,47554136.239358485
190,0.0
2,3, 1, 3, 0,15, 0.00,60.00,Tuesday
141,47470236.12666201
190,0.0
2,3, 1, 3, 0,16, 0.00,60.00,Tuesday
141,47380612.593185
190,0.0
2,3, 1, 3, 0,17, 0.00,60.00,Tuesday
141,47397488.33387264
190,0.0
2,3, 1, 3, 0,18, 0.00,60.00,Tuesday
141,47439115.601985976
190,0.0
2,3, 1, 3, 0,19, 0.00,60.00,Tuesday
141,47251246.03088602
190,0.0
2,3, 1, 3, 0,20, 0.00,60.00,Tuesday
141,46505544.60733359
190,0.0
2,3, 1, 3, 0,21, 0.00,60.00,Tuesday
141,44596566.776967846
190,0.0
2,3, 1, 3, 0,22, 0.00,60.00,Tuesday
141,43628568.83232369
190,0.0
2,3, 1, 3, 0,23, 0.00,60.00,Tuesday
141,44450563.91065444
190,0.0
2,3, 1, 3, 0,24, 0.00,60.00,Tuesday
141,45787325.63625254
190,0.0
2,4, 1, 4, 0, 1, 0.00,60.00,Wednesday
141,46491012.60196738
190,0.0
2,4, 1, 4, 0, 2, 0.00,60.00,Wednesday
141,46503708.28759433
190,0.0
2,4, 1, 4, 0, 3, 0.00,60.00,Wednesday
141,46476132.69834342
190,0.0
2,4, 1, 4, 0, 4, 0.00,60.00,Wednesday
141,46863151.693812415
190,0.0
2,4, 1, 4, 0, 5, 0.00,60.00,Wednesday
141,47842548.25876136
190,0.0
2,4, 1, 4, 0, 6, 0.00,60.00,Wednesday
141,47755457.04243069
190,0.0
2,4, 1, 4, 0, 7, 0.00,60.00,Wednesday
141,47805890.22467487
190,0.0
2,4, 1, 4, 0, 8, 0.00,60.00,Wednesday
141,48194451.57318438
190,0.0
2,4, 1, 4, 0, 9, 0.00,60.00,Wednesday
141,48471289.245937176
190,0.0
2,4, 1, 4, 0,10, 0.00,60.00,Wednesday
141,48695227.14590657
190,0.0
2,4, 1, 4, 0,11, 0.00,60.00,Wednesday
141,47270639.45450779
190,0.0
2,4, 1, 4, 0,12, 0.00,60.00,Wednesday
141,44874195.83403839
190,0.0
2,4, 1, 4, 0,13, 0.00,60.00,Wednesday
141,44341350.166776925
190,0.0
2,4, 1, 4, 0,14, 0.00,60.00,Wednesday
141,44358238.91267585
190,0.0
2,4, 1, 4, 0,15, 0.00,60.00,Wednesday
141,44147741.97180216
190,0.0
2,4, 1, 4, 0,16, 0.00,60.00,Wednesday
141,45133006.32338154
190,0.0
2,4, 1, 4, 0,17, 0.00,60.00,Wednesday
141,46885682.71529794
190,0.0
2,4, 1, 4, 0,18, 0.00,60.00,Wednesday
141,48377373.215889424
190,0.0
2,4, 1, 4, 0,19, 0.00,60.00,Wednesday
141,49919679.049169146
190,0.0
2,4, 1, 4, 0,20, 0.00,60.00,Wednesday
141,50754604.09720063
190,0.0
2,4, 1, 4, 0,21, 0.00,60.00,Wednesday
141,51216733.142310455
190,0.0
2,4, 1, 4, 0,22, 0.00,60.00,Wednesday
141,52180950.86306281
190,0.0
2,4, 1, 4, 0,23, 0.00,60.00,Wednesday
141,52100626.87990467
190,0.0
2,4, 1, 4, 0,24, 0.00,60.00,Wednesday
141,51853692.160288684
190,0.0
2,5, 1, 5, 0, 1, 0.00,60.00,Thursday
141,52431663.09861611
190,0.0
2,5, 1, 5, 0, 2, 0.00,60.00,Thursday
141,52399533.79224872
190,0.0
2,5, 1, 5, 0, 3, 0.00,60.00,Thursday
141,52345989.64431711
190,0.0
2,5, 1, 5, 0, 4, 0.00,60.00,Thursday
141,52699087.80314034
190,0.0
2,5, 1, 5, 0, 5, 0.00,60.00,Thursday
141,52468122.89000618
190,0.0
2,5, 1, 5, 0, 6, 0.00,60.00,Thursday
141,52422440.8424806
190,0.0
2,5, 1, 5, 0, 7, 0.00,60.00,Thursday
141,52791997.78216723
190,0.0
2,5, 1, 5, 0, 8, 0.00,60.00,Thursday
141,53069845.26293898
190,0.0
2,5, 1, 5, 0, 9, 0.00,60.00,Thursday
141,53137170.332314536
190,0.0
2,5, 1, 5, 0,10, 0.00,60.00,Thursday
141,53563334.1566422
190,0.0
2,5, 1, 5, 0,11, 0.00,60.00,Thursday
141,53356920.68900396
190,0.0
2,5, 1, 5, 0,12, 0.00,60.00,Thursday
141,52170081.516565144
190,0.0
2,5, 1, 5, 0,13, 0.00,60.00,Thursday
141,51603718.15498454
190,0.0
2,5, 1, 5, 0,14, 0.00,60.00,Thursday
141,50537051.86530787
190,0.0
2,5, 1, 5, 0,15, 0.00,60.00,Thursday
141,49526555.53759932
190,0.0
2,5, 1, 5, 0,16, 0.00,60.00,Thursday
141,49557828.112763755
190,0.0
2,5, 1, 5, 0,17, 0.00,60.00,Thursday
141,48940629.59482786
190,0.0
2,5, 1, 5, 0,18, 0.00,60.00,Thursday
141,48141792.44850208
190,0.0
2,5, 1, 5, 0,19, 0.00,60.00,Thursday
141,47921187.52648421
190,0.0
2,5, 1, 5, 0,20, 0.00,60.00,Thursday
141,47544059.429033846
190,0.0
2,5, 1, 5, 0,21, 0.00,60.00,Thursday
141,47151113.121087894
190,0.0
2,5, 1, 5, 0,22, 0.00,60.00,Thursday
141,46945910.79652989
190,0.0
2,5, 1, 5, 0,23, 0.00,60.00,Thursday
141,46923528.68700459
190,0.0
2,5, 1, 5, 0,24, 0.00,60.00,Thursday
141,46946973.02516968
190,0.0
2,6, 1, 6, 0, 1, 0.00,60.00,Friday
141,46931969.75322458
190,0.0
2,6, 1, 6, 0, 2, 0.00,60.00,Friday
141,46925911.835319586
190,0.0
2,6, 1, 6, 0, 3, 0.00,60.00,Friday
141,47534108.97877442
190,0.0
2,6, 1, 6, 0, 4, 0.00,60.00,Friday
141,48133141.113340564
190,0.0
2,6, 1, 6, 0, 5, 0.00,60.00,Friday
141,48420325.61002145
190,0.0
2,6, 1, 6, 0, 6, 0.00,60.00,Friday
141,48812089.93531388
190,0.0
2,6, 1, 6, 0, 7, 0.00,60.00,Friday
141,49447213.10321223
190,0.0
2,6, 1, 6, 0, 8, 0.00,60.00,Friday
141,50085578.28778988
190,0.0
2,6, 1, 6, 0, 9, 0.00,60.00,Friday
141,50892430.56946395
190,0.0
2,6, 1, 6, 0,10, 0.00,60.00,Friday
141,51446754.24476159
190,0.0
2,6, 1, 6, 0,11, 0.00,60.00,Friday
141,51118530.50281619
190,0.0
2,6, 1, 6, 0,12, 0.00,60.00,Friday
141,50536689.80954137
190,0.0
2,6, 1, 6, 0,13, 0.00,60.00,Friday
141,50325085.55491442
190,0.0
2,6, 1, 6, 0,14, 0.00,60.00,Friday
141,50240055.35496293
190,0.0
2,6, 1, 6, 0,15, 0.00,60.00,Friday
141,49978976.122237675
190,0.0
2,6, 1, 6, 0,16, 0.00,60.00,Friday
141,49342947.43281185
190,0.0
2,6, 1, 6, 0,17, 0.00,60.00,Friday
141,48646413.04610946
190,0.0
2,6, 1, 6, 0,18, 0.00,60.00,Friday
141,48233430.51380463
190,0.0
2,6, 1, 6, 0,19, 0.00,60.00,Friday
141,47843565.55852334
190,0.0
2,6, 1, 6, 0,20, 0.00,60.00,Friday
141,47149058.17103005
190,0.0
2,6, 1, 6, 0,21, 0.00,60.00,Friday
141,45547664.98441257
190,0.0
2,6, 1, 6, 0,22, 0.00,60.00,Friday
141,43672438.07748869
190,0.0
2,6, 1, 6, 0,23, 0.00,60.00,Friday
141,42909292.48814808
190,0.0
2,6, 1, 6, 0,24, 0.00,60.00,Friday
141,43199141.77846576
190,0.0
2,7, 1, 7, 0, 1, 0.00,60.00,Saturday
141,44831705.49851369
190,0.0
2,7, 1, 7, 0, 2, 0.00,60.00,Saturday
141,46408296.066605076
190,0.0
2,7, 1, 7, 0, 3, 0.00,60.00,Saturday
141,46131640.561183885
190,0.0
2,7, 1, 7, 0, 4, 0.00,60.00,Saturday
141,46216426.00797069
190,0.0
2,7, 1, 7, 0, 5, 0.00,60.00,Saturday
141,47285033.51909043
190,0.0
2,7, 1, 7, 0, 6, 0.00,60.00,Saturday
141,48132147.452036574
190,0.0
2,7, 1, 7, 0, 7, 0.00,60.00,Saturday
141,48643104.93018859
190,0.0
2,7, 1, 7, 0, 8, 0.00,60.00,Saturday
141,48926675.37289102
190,0.0
2,7, 1, 7, 0, 9, 0.00,60.00,Saturday
141,48384985.386483766
190,0.0
2,7, 1, 7, 0,10, 0.00,60.00,Saturday
141,47945517.01888796
190,0.0
2,7, 1, 7, 0,11, 0.00,60.00,Saturday
141,46468488.78228554
190,0.0
2,7, 1, 7, 0,12, 0.00,60.00,Saturday
141,44946605.65432273
190,0.0
2,7, 1, 7, 0,13, 0.00,60.00,Saturday
141,43734816.9633417
190,0.0
2,7, 1, 7, 0,14, 0.00,60.00,Saturday
141,42897058.93804174
190,0.0
2,7, 1, 7, 0,15, 0.00,60.00,Saturday
141,42700647.916850716
190,0.0
2,7, 1, 7, 0,16, 0.00,60.00,Saturday
141,42632156.14921987
190,0.0
2,7, 1, 7, 0,17, 0.00,60.00,Saturday
141,42413405.43008705
190,0.0
2,7, 1, 7, 0,18, 0.00,60.00,Saturday
141,42576700.74633877
190,0.0
2,7, 1, 7, 0,19, 0.00,60.00,Saturday
141,42811461.803427696
190,0.0
2,7, 1, 7, 0,20, 0.00,60.00,Saturday
141,43172747.70739146
190,0.0
2,7, 1, 7, 0,21, 0.00,60.00,Saturday
141,43476591.31976191
190,0.0
2,7, 1, 7, 0,22, 0.00,60.00,Saturday
141,43416277.38891274
190,0.0
2,7, 1, 7, 0,23, 0.00,60.00,Saturday
141,43528324.3012476
190,0.0
2,7, 1, 7, 0,24, 0.00,60.00,Saturday
141,43600013.46502051
190,0.0
2,8, 1, 8, 0, 1, 0.00,60.00,Sunday
141,43350788.2270887
190,0.0
2,8, 1, 8, 0, 2, 0.00,60.00,Sunday
141,43113698.843122154
190,0.0
2,8, 1, 8, 0, 3, 0.00,60.00,Sunday
141,42979170.6137661
190,0.0
2,8, 1, 8, 0, 4, 0.00,60.00,Sunday
141,42625819.21098537
190,0.0
2,8, 1, 8, 0, 5, 0.00,60.00,Sunday
141,42065445.26321417
190,0.0
2,8, 1, 8, 0, 6, 0.00,60.00,Sunday
141,41642942.90230675
190,0.0
2,8, 1, 8, 0, 7, 0.00,60.00,Sunday
141,41284862.35916075
190,0.0
2,8, 1, 8, 0, 8, 0.00,60.00,Sunday
141,40910126.67710059
190,0.0
2,8, 1, 8, 0, 9, 0.00,60.00,Sunday
141,40435521.917380154
190,0.0
2,8, 1, 8, 0,10, 0.00,60.00,Sunday
141,40202864.77868087
190,0.0
2,8, 1, 8, 0,11, 0.00,60.00,Sunday
141,39949456.35103902
190,0.0
2,8, 1, 8, 0,12, 0.00,60.00,Sunday
141,39856407.14602676
190,0.0
2,8, 1, 8, 0,13, 0.00,60.00,Sunday
141,39555153.95732573
190,0.0
2,8, 1, 8, 0,14, 0.00,60.00,Sunday
141,39432904.01529593
190,0.0
2,8, 1, 8, 0,15, 0.00,60.00,Sunday
141,40206481.756060585
190,0.0
2,8, 1, 8, 0,16, 0.00,60.00,Sunday
141,40733811.37901856
190,0.0
2,8, 1, 8, 0,17, 0.00,60.00,Sunday
141,40628194.84310523
190,0.0
2,8, 1, 8, 0,18, 0.00,60.00,Sunday
141,40867471.12617949
190,0.0
2,8, 1, 8, 0,19, 0.00,60.00,Sunday
141,40688943.01383102
190,0.0
2,8, 1, 8, 0,20, 0.00,60.00,Sunday
141,40128597.63989479
190,0.0
2,8, 1, 8, 0,21, 0.00,60.00,Sunday
141,39760870.9324905
190,0.0
2,8, 1, 8, 0,22, 0.00,60.00,Sunday
141,39965990.11115018
190,0.0
2,8, 1, 8, 0,23, 0.00,60.00,Sunday
141,40170731.34657565
190,0.0
2,8, 1, 8, 0,24, 0.00,60.00,Sunday
141,40612622.60301491
190,0.0
2,9, 1, 9, 0, 1, 0.00,60.00,Monday
141,40765779.77762538
190,0.0
2,9, 1, 9, 0, 2, 0.00,60.00,Monday
141,40895976.68046403
190,0.0
2,9, 1, 9, 0, 3, 0.00,60.00,Monday
141,40906672.03059231
190,0.0
2,9, 1, 9, 0, 4, 0.00,60.00,Monday
141,40783478.702643305
190,0.0
2,9, 1, 9, 0, 5, 0.00,60.00,Monday
141,40370512.665477
190,0.0
2,9, 1, 9, 0, 6, 0.00,60.00,Monday
141,39920661.74180576
190,0.0
2,9, 1, 9, 0, 7, 0.00,60.00,Monday
141,39572618.70736635
190,0.0
2,9, 1, 9, 0, 8, 0.00,60.00,Monday
141,39348770.19585834
190,0.0
2,9, 1, 9, 0, 9, 0.00,60.00,Monday
141,38750038.26261163
190,0.0
2,9, 1, 9, 0,10, 0.00,60.00,Monday
141,37364270.31997494
190,0.0
2,9, 1, 9, 0,11, 0.00,60.00,Monday
141,36163545.35753838
190,0.0
2,9, 1, 9, 0,12, 0.00,60.00,Monday
141,35440500.66610973
190,0.0
2,9, 1, 9, 0,13, 0.00,60.00,Monday
141,34781340.58547828
190,0.0
2,9, 1, 9, 0,14, 0.00,60.00,Monday
141,34204273.67607195
190,0.0
2,9, 1, 9, 0,15, 0.00,60.00,Monday
141,33824770.54027337
190,0.0
2,9, 1, 9, 0,16, 0.00,60.00,Monday
141,33815999.02581859
190,0.0
2,9, 1, 9, 0,17, 0.00,60.00,Monday
141,34439343.74645381
190,0.0
2,9, 1, 9, 0,18, 0.00,60.00,Monday
141,35046942.727542125
190,0.0
2,9, 1, 9, 0,19, 0.00,60.00,Monday
141,34800587.744717866
190,0.0
2,9, 1, 9, 0,20, 0.00,60.00,Monday
141,33498109.070702426
190,0.0
2,9, 1, 9, 0,21, 0.00,60.00,Monday
141,32195168.12191565
190,0.0
2,9, 1, 9, 0,22, 0.00,60.00,Monday
141,31328119.441270255
190,0.0
2,9, 1, 9, 0,23, 0.00,60.00,Monday
141,31001323.74854202
190,0.0
2,9, 1, 9, 0,24, 0.00,60.00,Monday
141,30825588.969861157
190,0.0
2,10, 1,10, 0, 1, 0.00,60.00,Tuesday
141,30847980.13281858
190,0.0
2,10, 1,10, 0, 2, 0.00,60.00,Tuesday
141,30740553.390127707
190,0.0
2,10, 1,10, 0, 3, 0.00,60.00,Tuesday
141,30447882.28466477
190,0.0
2,10, 1,10, 0, 4, 0.00,60.00,Tuesday
141,30485185.709517892
190,0.0
2,10, 1,10, 0, 5, 0.00,60.00,Tuesday
141,30311737.30758379
190,0.0
2,10, 1,10, 0, 6, 0.00,60.00,Tuesday
141,30075141.841898277
190,0.0
2,10, 1,10, 0, 7, 0.00,60.00,Tuesday
141,29880591.20556666
190,0.0
2,10, 1,10, 0, 8, 0.00,60.00,Tuesday
141,29546382.20658888
190,0.0
2,10, 1,10, 0, 9, 0.00,60.00,Tuesday
141,29187223.830968574
190,0.0
2,10, 1,10, 0,10, 0.00,60.00,Tuesday
141,28787614.751737647
190,0.0
2,10, 1,10, 0,11, 0.00,60.00,Tuesday
141,28293862.201846033
190,0.0
2,10, 1,10, 0,12, 0.00,60.00,Tuesday
141,27759937.262780286
190,0.0
2,10, 1,10, 0,13, 0.00,60.00,Tuesday
141,27573922.494091038
190,0.0
2,10, 1,10, 0,14, 0.00,60.00,Tuesday
141,28975901.34606124
190,0.0
2,10, 1,10, 0,15, 0.00,60.00,Tuesday
141,30114393.172730733
190,0.0
2,10, 1,10, 0,16, 0.00,60.00,Tuesday
141,30837184.77925415
190,0.0
2,10, 1,10, 0,17, 0.00,60.00,Tuesday
141,31665770.560811248
190,0.0
2,10, 1,10, 0,18, 0.00,60.00,Tuesday
141,32815709.330101915
190,0.0
2,10, 1,10, 0,19, 0.00,60.00,Tuesday
141,33611454.61130878
190,0.0
2,10, 1,10, 0,20, 0.00,60.00,Tuesday
141,34416040.63619116
190,0.0
2,10, 1,10, 0,21, 0.00,60.00,Tuesday
141,35592039.4108354
190,0.0
2,10, 1,10, 0,22, 0.00,60.00,Tuesday
141,36598021.96066839
190,0.0
2,10, 1,10, 0,23, 0.00,60.00,Tuesday
141,37082970.29643695
190,0.0
2,10, 1,10, 0,24, 0.00,60.00,Tuesday
141,38249373.80384234
190,0.0
2,11, 1,11, 0, 1, 0.00,60.00,Wednesday
141,39082783.18901503
190,0.0
2,11, 1,11, 0, 2, 0.00,60.00,Wednesday
141,39905940.550227955
190,0.0
2,11, 1,11, 0, 3, 0.00,60.00,Wednesday
141,40853371.506661676
190,0.0
2,11, 1,11, 0, 4, 0.00,60.00,Wednesday
141,41168608.8613165
190,0.0
2,11, 1,11, 0, 5, 0.00,60.00,Wednesday
141,41463123.66906246
190,0.0
2,11, 1,11, 0, 6, 0.00,60.00,Wednesday
141,41792073.45006187
190,0.0
2,11, 1,11, 0, 7, 0.00,60.00,Wednesday
141,42201749.4163602
190,0.0
2,11, 1,11, 0, 8, 0.00,60.00,Wednesday
141,42552429.71310432
190,0.0
2,11, 1,11, 0, 9, 0.00,60.00,Wednesday
141,42675034.67701003
190,0.0
2,11, 1,11, 0,10, 0.00,60.00,Wednesday
141,42639862.45561376
190,0.0
2,11, 1,11, 0,11, 0.00,60.00,Wednesday
141,42443587.40404276
190,0.0
2,11, 1,11, 0,12, 0.00,60.00,Wednesday
141,41988897.571197204
190,0.0
2,11, 1,11, 0,13, 0.00,60.00,Wednesday
141,41533740.87595102
190,0.0
2,11, 1,11, 0,14, 0.00,60.00,Wednesday
141,41156674.62943882
190,0.0
2,11, 1,11, 0,15, 0.00,60.00,Wednesday
141,40764364.67730686
190,0.0
2,11, 1,11, 0,16, 0.00,60.00,Wednesday
141,40329639.118698455
190,0.0
2,11, 1,11, 0,17, 0.00,60.00,Wednesday
141,39571485.15666968
190,0.0
2,11, 1,11, 0,18, 0.00,60.00,Wednesday
141,38857237.24105256
190,0.0
2,11, 1,11, 0,19, 0.00,60.00,Wednesday
141,38307183.00700568
190,0.0
2,11, 1,11, 0,20, 0.00,60.00,Wednesday
141,38018023.25756211
190,0.0
2,11, 1,11, 0,21, 0.00,60.00,Wednesday
141,37828735.16790485
190,0.0
2,11, 1,11, 0,22, 0.00,60.00,Wednesday
141,37165244.81461722
190,0.0
2,11, 1,11, 0,23, 0.00,60.00,Wednesday
141,36667015.52082349
190,0.0
2,11, 1,11, 0,24, 0.00,60.00,Wednesday
141,36643041.861407995
190,0.0
2,12, 1,12, 0, 1, 0.00,60.00,Thursday
141,36792834.35858695
190,0.0
2,12, 1,12, 0, 2, 0.00,60.00,Thursday
141,36765785.72824367
190,0.0
2,12, 1,12, 0, 3, 0.00,60.00,Thursday
141,36583638.41693267
190,0.0
2,12, 1,12, 0, 4, 0.00,60.00,Thursday
141,36554336.126266554
190,0.0
2,12, 1,12, 0, 5, 0.00,60.00,Thursday
141,36705005.63921473
190,0.0
2,12, 1,12, 0, 6, 0.00,60.00,Thursday
141,37119920.804913335
190,0.0
2,12, 1,12, 0, 7, 0.00,60.00,Thursday
141,37330637.853277236
190,0.0
2,12, 1,12, 0, 8, 0.00,60.00,Thursday
141,37361494.584793374
190,0.0
2,12, 1,12, 0, 9, 0.00,60.00,Thursday
141,37022100.11931457
190,0.0
2,12, 1,12, 0,10, 0.00,60.00,Thursday
141,36316470.95298917
190,0.0
2,12, 1,12, 0,11, 0.00,60.00,Thursday
141,35777506.085504405
190,0.0
2,12, 1,12, 0,12, 0.00,60.00,Thursday
141,35469461.62099233
190,0.0
2,12, 1,12, 0,13, 0.00,60.00,Thursday
141,35092238.96557785
190,0.0
2,12, 1,12, 0,14, 0.00,60.00,Thursday
141,34710810.03405333
190,0.0
2,12, 1,12, 0,15, 0.00,60.00,Thursday
141,34751052.094975546
190,0.0
2,12, 1,12, 0,16, 0.00,60.00,Thursday
141,34973998.19208747
190,0.0
2,12, 1,12, 0,17, 0.00,60.00,Thursday
141,35843973.296628356
190,0.0
2,12, 1,12, 0,18, 0.00,60.00,Thursday
141,36354065.95894448
190,0.0
2,12, 1,12, 0,19, 0.00,60.00,Thursday
141,36173121.91343546
190,0.0
2,12, 1,12, 0,20, 0.00,60.00,Thursday
141,35724796.44827916
190,0.0
2,12, 1,12, 0,21, 0.00,60.00,Thursday
141,35538509.087989055
190,0.0
2,12, 1,12, 0,22, 0.00,60.00,Thursday
141,35200501.28473537
190,0.0
2,12, 1,12, 0,23, 0.00,60.00,Thursday
141,35016351.49465519
190,0.0
2,12, 1,12, 0,24, 0.00,60.00,Thursday
141,34932598.95784958
190,0.0
2,13, 1,13, 0, 1, 0.00,60.00,Friday
141,34591111.017503805
190,0.0
2,13, 1,13, 0, 2, 0.00,60.00,Friday
141,34243639.76038054
190,0.0
2,13, 1,13, 0, 3, 0.00,60.00,Friday
141,33790066.17162706
190,0.0
2,13, 1,13, 0, 4, 0.00,60.00,Friday
141,33437743.920598306
190,0.0
2,13, 1,13, 0, 5, 0.00,60.00,Friday
141,33232466.668477636
190,0.0
2,13, 1,13, 0, 6, 0.00,60.00,Friday
141,33097497.403008252
190,0.0
2,13, 1,13, 0, 7, 0.00,60.00,Friday
141,33097191.2578655
190,0.0
2,13, 1,13, 0, 8, 0.00,60.00,Friday
141,32956772.204855636
190,0.0
2,13, 1,13, 0, 9, 0.00,60.00,Friday
141,32609338.468101535
190,0.0
2,13, 1,13, 0,10, 0.00,60.00,Friday
141,33002635.60223279
190,0.0
2,13, 1,13, 0,11, 0.00,60.00,Friday
141,33486717.14767234
190,0.0
2,13, 1,13, 0,12, 0.00,60.00,Friday
141,33462922.52083591
190,0.0
2,13, 1,13, 0,13, 0.00,60.00,Friday
141,33511215.541724924
190,0.0
2,13, 1,13, 0,14, 0.00,60.00,Friday
141,33886997.05475922
190,0.0
2,13, 1,13, 0,15, 0.00,60.00,Friday
141,34134729.27689932
190,0.0
2,13, 1,13, 0,16, 0.00,60.00,Friday
141,34143275.92777516
190,0.0
2,13, 1,13, 0,17, 0.00,60.00,Friday
141,34103049.75695063
190,0.0
2,13, 1,13, 0,18, 0.00,60.00,Friday
141,34095080.348529935
190,0.0
2,13, 1,13, 0,19, 0.00,60.00,Friday
141,34453899.808348656
190,0.0
2,13, 1,13, 0,20, 0.00,60.00,Friday
141,35067939.210338004
190,0.0
2,13, 1,13, 0,21, 0.00,60.00,Friday
141,35652346.68146027
190,0.0
2,13, 1,13, 0,22, 0.00,60.00,Friday
141,36125927.337242566
190,0.0
2,13, 1,13, 0,23, 0.00,60.00,Friday
141,36234111.82835676
190,0.0
2,13, 1,13, 0,24, 0.00,60.00,Friday
141,37947905.649028145
190,0.0
2,14, 1,14, 0, 1, 0.00,60.00,Saturday
141,39251619.62105216
190,0.0
2,14, 1,14, 0, 2, 0.00,60.00,Saturday
141,39167370.22173001
190,0.0
2,14, 1,14, 0, 3, 0.00,60.00,Saturday
141,39534317.609116696
190,0.0
2,14, 1,14, 0, 4, 0.00,60.00,Saturday
141,39632520.69154134
190,0.0
2,14, 1,14, 0, 5, 0.00,60.00,Saturday
141,39811563.60584659
190,0.0
2,14, 1,14, 0, 6, 0.00,60.00,Saturday
141,41062809.84138569
190,0.0
2,14, 1,14, 0, 7, 0.00,60.00,Saturday
141,42104539.97204915
190,0.0
2,14, 1,14, 0, 8, 0.00,60.00,Saturday
141,42184303.377091
190,0.0
2,14, 1,14, 0, 9, 0.00,60.00,Saturday
141,42984411.37432951
190,0.0
2,14, 1,14, 0,10, 0.00,60.00,Saturday
141,43960387.75588839
190,0.0
2,14, 1,14, 0,11, 0.00,60.00,Saturday
141,44135784.98174998
190,0.0
2,14, 1,14, 0,12, 0.00,60.00,Saturday
141,44136724.70522868
190,0.0
2,14, 1,14, 0,13, 0.00,60.00,Saturday
141,43796776.38057976
190,0.0
2,14, 1,14, 0,14, 0.00,60.00,Saturday
141,42740041.90403079
190,0.0
2,14, 1,14, 0,15, 0.00,60.00,Saturday
141,42621234.16423729
190,0.0
2,14, 1,14, 0,16, 0.00,60.00,Saturday
141,42810954.05999939
190,0.0
2,14, 1,14, 0,17, 0.00,60.00,Saturday
141,43154514.70670249
190,0.0
2,14, 1,14, 0,18, 0.00,60.00,Saturday
141,43985044.06488464
190,0.0
2,14, 1,14, 0,19, 0.00,60.00,Saturday
141,44080696.11850635
190,0.0
2,14, 1,14, 0,20, 0.00,60.00,Saturday
141,44408202.56077175
190,0.0
2,14, 1,14, 0,21, 0.00,60.00,Saturday
141,44540423.89261631
190,0.0
2,14, 1,14, 0,22, 0.00,60.00,Saturday
141,44583642.45596589
190,0.0
2,14, 1,14, 0,23, 0.00,60.00,Saturday
141,44730905.072139785
190,0.0
2,14, 1,14, 0,24, 0.00,60.00,Saturday
141,44994445.50955743
190,0.0
2,15, 1,15, 0, 1, 0.00,60.00,Sunday
141,44773291.38384802
190,0.0
2,15, 1,15, 0, 2, 0.00,60.00,Sunday
141,43755040.47995265
190,0.0
2,15, 1,15, 0, 3, 0.00,60.00,Sunday
141,43318673.348612234
190,0.0
2,15, 1,15, 0, 4, 0.00,60.00,Sunday
141,42968956.5003968
190,0.0
2,15, 1,15, 0, 5, 0.00,60.00,Sunday
141,42140184.29621628
190,0.0
2,15, 1,15, 0, 6, 0.00,60.00,Sunday
141,41165572.33729496
190,0.0
2,15, 1,15, 0, 7, 0.00,60.00,Sunday
141,40113304.86935969
190,0.0
2,15, 1,15, 0, 8, 0.00,60.00,Sunday
141,39272964.845768616
190,0.0
2,15, 1,15, 0, 9, 0.00,60.00,Sunday
141,38503179.028595954
190,0.0
2,15, 1,15, 0,10, 0.00,60.00,Sunday
141,38042855.91440098
190,0.0
2,15, 1,15, 0,11, 0.00,60.00,Sunday
141,38047762.468750365
190,0.0
2,15, 1,15, 0,12, 0.00,60.00,Sunday
141,38730873.4516375
190,0.0
2,15, 1,15, 0,13, 0.00,60.00,Sunday
141,39105632.92978214
190,0.0
2,15, 1,15, 0,14, 0.00,60.00,Sunday
141,39029734.5892332
190,0.0
2,15, 1,15, 0,15, 0.00,60.00,Sunday
141,38836101.02475518
190,0.0
2,15, 1,15, 0,16, 0.00,60.00,Sunday
141,38319710.556867965
190,0.0
2,15, 1,15, 0,17, 0.00,60.00,Sunday
141,37976365.17933553
190,0.0
2,15, 1,15, 0,18, 0.00,60.00,Sunday
141,37947340.319421254
190,0.0
2,15, 1,15, 0,19, 0.00,60.00,Sunday
141,38041637.51728774
190,0.0
2,15, 1,15, 0,20, 0.00,60.00,Sunday
141,38191725.45565527
190,0.0
2,15, 1,15, 0,21, 0.00,60.00,Sunday
141,38662129.281336695
190,0.0
2,15, 1,15, 0,22, 0.00,60.00,Sunday
141,38899211.34620303
190,0.0
2,15, 1,15, 0,23, 0.00,60.00,Sunday
141,38993742.11023441
190,0.0
2,15, 1,15, 0,24, 0.00,60.00,Sunday
141,39254655.7414996
190,0.0
2,16, 1,16, 0, 1, 0.00,60.00,Monday
141,39920315.26687133
190,0.0
2,16, 1,16, 0, 2, 0.00,60.00,Monday
141,40589354.72335106
190,0.0
2,16, 1,16, 0, 3, 0.00,60.00,Monday
141,41071708.582094066
190,0.0
2,16, 1,16, 0, 4, 0.00,60.00,Monday
141,41462107.79016162
190,0.0
2,16, 1,16, 0, 5, 0.00,60.00,Monday
141,41901670.87020262
190,0.0
2,16, 1,16, 0, 6, 0.00,60.00,Monday
141,42263212.960152045
190,0.0
2,16, 1,16, 0, 7, 0.00,60.00,Monday
141,42855984.03760862
190,0.0
2,16, 1,16, 0, 8, 0.00,60.00,Monday
141,43405234.82822083
190,0.0
2,16, 1,16, 0, 9, 0.00,60.00,Monday
141,43681584.08147518
190,0.0
2,16, 1,16, 0,10, 0.00,60.00,Monday
141,43766040.50647846
190,0.0
2,16, 1,16, 0,11, 0.00,60.00,Monday
141,42804156.16556439
190,0.0
2,16, 1,16, 0,12, 0.00,60.00,Monday
141,41932836.39486004
190,0.0
2,16, 1,16, 0,13, 0.00,60.00,Monday
141,41167960.54488979
190,0.0
2,16, 1,16, 0,14, 0.00,60.00,Monday
141,40550432.64189075
190,0.0
2,16, 1,16, 0,15, 0.00,60.00,Monday
141,40374140.14333262
190,0.0
2,16, 1,16, 0,16, 0.00,60.00,Monday
141,40533975.6119193
190,0.0
2,16, 1,16, 0,17, 0.00,60.00,Monday
141,41062570.30294517
190,0.0
2,16, 1,16, 0,18, 0.00,60.00,Monday
141,42090086.09749855
190,0.0
2,16, 1,16, 0,19, 0.00,60.00,Monday
141,43148543.15437913
190,0.0
2,16, 1,16, 0,20, 0.00,60.00,Monday
141,43665202.70443671
190,0.0
2,16, 1,16, 0,21, 0.00,60.00,Monday
141,44061009.72463809
190,0.0
2,16, 1,16, 0,22, 0.00,60.00,Monday
141,44420617.803120896
190,0.0
2,16, 1,16, 0,23, 0.00,60.00,Monday
141,44976652.08315957
190,0.0
2,16, 1,16, 0,24, 0.00,60.00,Monday
141,45090844.82278828
190,0.0
2,17, 1,17, 0, 1, 0.00,60.00,Tuesday
141,45294964.80628091
190,0.0
2,17, 1,17, 0, 2, 0.00,60.00,Tuesday
141,46120406.651468426
190,0.0
2,17, 1,17, 0, 3, 0.00,60.00,Tuesday
141,46925480.62963136
190,0.0
2,17, 1,17, 0, 4, 0.00,60.00,Tuesday
141,47687154.65077353
190,0.0
2,17, 1,17, 0, 5, 0.00,60.00,Tuesday
141,48508334.96018724
190,0.0
2,17, 1,17, 0, 6, 0.00,60.00,Tuesday
141,49323674.697989
190,0.0
2,17, 1,17, 0, 7, 0.00,60.00,Tuesday
141,49908847.78614409
190,0.0
2,17, 1,17, 0, 8, 0.00,60.00,Tuesday
141,50338193.21896516
190,0.0
2,17, 1,17, 0, 9, 0.00,60.00,Tuesday
141,50628903.77509157
190,0.0
2,17, 1,17, 0,10, 0.00,60.00,Tuesday
141,49689329.93621634
190,0.0
2,17, 1,17, 0,11, 0.00,60.00,Tuesday
141,48174449.151368044
190,0.0
2,17, 1,17, 0,12, 0.00,60.00,Tuesday
141,46838876.06480576
190,0.0
2,17, 1,17, 0,13, 0.00,60.00,Tuesday
141,45971324.633156024
190,0.0
2,17, 1,17, 0,14, 0.00,60.00,Tuesday
141,45553732.7587333
190,0.0
2,17, 1,17, 0,15, 0.00,60.00,Tuesday
141,45368560.111771986
190,0.0
2,17, 1,17, 0,16, 0.00,60.00,Tuesday
141,45570530.89276105
190,0.0
2,17, 1,17, 0,17, 0.00,60.00,Tuesday
141,45522210.666943535
190,0.0
2,17, 1,17, 0,18, 0.00,60.00,Tuesday
141,44903646.13917481
190,0.0
2,17, 1,17, 0,19, 0.00,60.00,Tuesday
141,44285403.54031956
190,0.0
2,17, 1,17, 0,20, 0.00,60.00,Tuesday
141,44060111.6997136
190,0.0
2,17, 1,17, 0,21, 0.00,60.00,Tuesday
141,44112446.38518684
190,0.0
2,17, 1,17, 0,22, 0.00,60.00,Tuesday
141,44075455.42860715
190,0.0
2,17, 1,17, 0,23, 0.00,60.00,Tuesday
141,44127759.37765242
190,0.0
2,17, 1,17, 0,24, 0.00,60.00,Tuesday
141,44582807.36906681
190,0.0
2,18, 1,18, 0, 1, 0.00,60.00,Wednesday
141,44974308.33199744
190,0.0
2,18, 1,18, 0, 2, 0.00,60.00,Wednesday
141,45399942.8629578
190,0.0
2,18, 1,18, 0, 3, 0.00,60.00,Wednesday
141,45795469.175526984
190,0.0
2,18, 1,18, 0, 4, 0.00,60.00,Wednesday
141,46131768.01779216
190,0.0
2,18, 1,18, 0, 5, 0.00,60.00,Wednesday
141,46495042.077314354
190,0.0
2,18, 1,18, 0, 6, 0.00,60.00,Wednesday
141,46883360.89558956
190,0.0
2,18, 1,18, 0, 7, 0.00,60.00,Wednesday
141,47719595.769230425
190,0.0
2,18, 1,18, 0, 8, 0.00,60.00,Wednesday
141,48091588.147813015
190,0.0
2,18, 1,18, 0, 9, 0.00,60.00,Wednesday
141,48343695.962986775
190,0.0
2,18, 1,18, 0,10, 0.00,60.00,Wednesday
141,48437499.51961318
190,0.0
2,18, 1,18, 0,11, 0.00,60.00,Wednesday
141,47967064.20392749
190,0.0
2,18, 1,18, 0,12, 0.00,60.00,Wednesday
141,47603742.686201215
190,0.0
2,18, 1,18, 0,13, 0.00,60.00,Wednesday
141,47845798.82130645
190,0.0
2,18, 1,18, 0,14, 0.00,60.00,Wednesday
141,48271489.9098295
190,0.0
2,18, 1,18, 0,15, 0.00,60.00,Wednesday
141,48444167.28205538
190,0.0
2,18, 1,18, 0,16, 0.00,60.00,Wednesday
141,48853879.18370179
190,0.0
2,18, 1,18, 0,17, 0.00,60.00,Wednesday
141,49004808.546503596
190,0.0
2,18, 1,18, 0,18, 0.00,60.00,Wednesday
141,48728383.2705636
190,0.0
2,18, 1,18, 0,19, 0.00,60.00,Wednesday
141,48595076.94150579
190,0.0
2,18, 1,18, 0,20, 0.00,60.00,Wednesday
141,48683177.51186179
190,0.0
2,18, 1,18, 0,21, 0.00,60.00,Wednesday
141,48764462.41874035
190,0.0
2,18, 1,18, 0,22, 0.00,60.00,Wednesday
141,48947645.91632024
190,0.0
2,18, 1,18, 0,23, 0.00,60.00,Wednesday
141,49080398.26382688
190,0.0
2,18, 1,18, 0,24, 0.00,60.00,Wednesday
141,49245429.471024856
190,0.0
2,19, 1,19, 0, 1, 0.00,60.00,Thursday
141,49060747.02899915
190,0.0
2,19, 1,19, 0, 2, 0.00,60.00,Thursday
141,49147798.41151041
190,0.0
2,19, 1,19, 0, 3, 0.00,60.00,Thursday
141,49661252.966022946
190,0.0