Program Version,EnergyPlus, Version 24.2.0-94a887817b, YMD=2025.04.24 13:19
1,5,Environment Title[],Latitude[deg],Longitude[deg],Time Zone[],Elevation[m]
2,8,Day of Simulation[],Month[],Day of Month[],DST Indicator[1=yes 0=no],Hour[],StartMinute[],EndMinute[],DayType
3,5,Cumulative Day of Simulation[],Month[],Day of Month[],DST Indicator[1=yes 0=no],DayType  ! When Daily Report Variables Requested
4,2,Cumulative Days of Simulation[],Month[]  ! When Monthly Report Variables Requested
5,1,Cumulative Days of Simulation[] ! When Run Period Report Variables Requested
6,1,Calendar Year of Simulation[] ! When Annual Report Variables Requested
141,1,ZONE_0599100000036550 IDEAL LOADS AIR SYSTEM,Zone Ideal Loads Supply Air Total Heating Energy [J] !Hourly
190,1,ZONE_0599100000036550 IDEAL LOADS AIR SYSTEM,Zone Ideal Loads Supply Air Total Cooling Energy [J] !Hourly
End of Data Dictionary
1,RUN PERIOD 1,  51.96,   4.45,   1.00,  -4.50
2,1, 1, 1, 0, 1, 0.00,60.00,Sunday
141,113783521.2518725
190,0.0
2,1, 1, 1, 0, 2, 0.00,60.00,Sunday
141,117984239.17210478
190,0.0
2,1, 1, 1, 0, 3, 0.00,60.00,Sunday
141,117935629.67170021
190,0.0
2,1, 1, 1, 0, 4, 0.00,60.00,Sunday
141,121054103.66852207
190,0.0
2,1, 1, 1, 0, 5, 0.00,60.00,Sunday
141,123225799.68606055
190,0.0
2,1, 1, 1, 0, 6, 0.00,60.00,Sunday
141,123571951.14392516
190,0.0
2,1, 1, 1, 0, 7, 0.00,60.00,Sunday
141,124114571.98358746
190,0.0
2,1, 1, 1, 0, 8, 0.00,60.00,Sunday
141,124041502.89923586
190,0.0
2,1, 1, 1, 0, 9, 0.00,60.00,Sunday
141,124037728.60122713
190,0.0
2,1, 1, 1, 0,10, 0.00,60.00,Sunday
141,123303369.38425973
190,0.0
2,1, 1, 1, 0,11, 0.00,60.00,Sunday
141,120998089.38871112
190,0.0
2,1, 1, 1, 0,12, 0.00,60.00,Sunday
141,117079063.55885646
190,0.0
2,1, 1, 1, 0,13, 0.00,60.00,Sunday
141,115231966.77773716
190,0.0
2,1, 1, 1, 0,14, 0.00,60.00,Sunday
141,112467644.40709886
190,0.0
2,1, 1, 1, 0,15, 0.00,60.00,Sunday
141,110382310.26641236
190,0.0
2,1, 1, 1, 0,16, 0.00,60.00,Sunday
141,112000446.97328311
190,0.0
2,1, 1, 1, 0,17, 0.00,60.00,Sunday
141,113968844.46020636
190,0.0
2,1, 1, 1, 0,18, 0.00,60.00,Sunday
141,114219391.28110947
190,0.0
2,1, 1, 1, 0,19, 0.00,60.00,Sunday
141,114403492.2750112
190,0.0
2,1, 1, 1, 0,20, 0.00,60.00,Sunday
141,113867801.84124407
190,0.0
2,1, 1, 1, 0,21, 0.00,60.00,Sunday
141,113168987.56829788
190,0.0
2,1, 1, 1, 0,22, 0.00,60.00,Sunday
141,113238896.7401665
190,0.0
2,1, 1, 1, 0,23, 0.00,60.00,Sunday
141,110199539.81888142
190,0.0
2,1, 1, 1, 0,24, 0.00,60.00,Sunday
141,107974883.83747712
190,0.0
2,2, 1, 2, 0, 1, 0.00,60.00,Monday
141,108352550.40845937
190,0.0
2,2, 1, 2, 0, 2, 0.00,60.00,Monday
141,105406463.10450165
190,0.0
2,2, 1, 2, 0, 3, 0.00,60.00,Monday
141,103146373.19738457
190,0.0
2,2, 1, 2, 0, 4, 0.00,60.00,Monday
141,100844264.82434452
190,0.0
2,2, 1, 2, 0, 5, 0.00,60.00,Monday
141,95788889.63347465
190,0.0
2,2, 1, 2, 0, 6, 0.00,60.00,Monday
141,93331616.61966272
190,0.0
2,2, 1, 2, 0, 7, 0.00,60.00,Monday
141,89467306.50049995
190,0.0
2,2, 1, 2, 0, 8, 0.00,60.00,Monday
141,84733696.54087569
190,0.0
2,2, 1, 2, 0, 9, 0.00,60.00,Monday
141,85948760.97129531
190,0.0
2,2, 1, 2, 0,10, 0.00,60.00,Monday
141,89115594.07303832
190,0.0
2,2, 1, 2, 0,11, 0.00,60.00,Monday
141,91144619.44654033
190,0.0
2,2, 1, 2, 0,12, 0.00,60.00,Monday
141,88870006.3214556
190,0.0
2,2, 1, 2, 0,13, 0.00,60.00,Monday
141,87759980.24500802
190,0.0
2,2, 1, 2, 0,14, 0.00,60.00,Monday
141,89899565.74431592
190,0.0
2,2, 1, 2, 0,15, 0.00,60.00,Monday
141,90760253.24370351
190,0.0
2,2, 1, 2, 0,16, 0.00,60.00,Monday
141,92893326.60887858
190,0.0
2,2, 1, 2, 0,17, 0.00,60.00,Monday
141,95033497.65798381
190,0.0
2,2, 1, 2, 0,18, 0.00,60.00,Monday
141,95438000.21400353
190,0.0
2,2, 1, 2, 0,19, 0.00,60.00,Monday
141,97899013.52748458
190,0.0
2,2, 1, 2, 0,20, 0.00,60.00,Monday
141,100202385.20795497
190,0.0
2,2, 1, 2, 0,21, 0.00,60.00,Monday
141,100689519.2532344
190,0.0
2,2, 1, 2, 0,22, 0.00,60.00,Monday
141,100779105.36568233
190,0.0
2,2, 1, 2, 0,23, 0.00,60.00,Monday
141,101052025.1642785
190,0.0
2,2, 1, 2, 0,24, 0.00,60.00,Monday
141,101398409.84886077
190,0.0
2,3, 1, 3, 0, 1, 0.00,60.00,Tuesday
141,101832105.9793775
190,0.0
2,3, 1, 3, 0, 2, 0.00,60.00,Tuesday
141,102061744.83227839
190,0.0
2,3, 1, 3, 0, 3, 0.00,60.00,Tuesday
141,102214379.12841529
190,0.0
2,3, 1, 3, 0, 4, 0.00,60.00,Tuesday
141,102800122.94843516
190,0.0
2,3, 1, 3, 0, 5, 0.00,60.00,Tuesday
141,105788704.872976
190,0.0
2,3, 1, 3, 0, 6, 0.00,60.00,Tuesday
141,107751472.09832019
190,0.0
2,3, 1, 3, 0, 7, 0.00,60.00,Tuesday
141,108735971.92869478
190,0.0
2,3, 1, 3, 0, 8, 0.00,60.00,Tuesday
141,108577429.21516973
190,0.0
2,3, 1, 3, 0, 9, 0.00,60.00,Tuesday
141,110925630.6553021
190,0.0
2,3, 1, 3, 0,10, 0.00,60.00,Tuesday
141,112070712.20573324
190,0.0
2,3, 1, 3, 0,11, 0.00,60.00,Tuesday
141,112379619.86727813
190,0.0
2,3, 1, 3, 0,12, 0.00,60.00,Tuesday
141,113087052.46452394
190,0.0
2,3, 1, 3, 0,13, 0.00,60.00,Tuesday
141,116606379.27838174
190,0.0
2,3, 1, 3, 0,14, 0.00,60.00,Tuesday
141,118552968.04701284
190,0.0
2,3, 1, 3, 0,15, 0.00,60.00,Tuesday
141,118148784.10367733
190,0.0
2,3, 1, 3, 0,16, 0.00,60.00,Tuesday
141,117762767.14405197
190,0.0
2,3, 1, 3, 0,17, 0.00,60.00,Tuesday
141,117846488.08362663
190,0.0
2,3, 1, 3, 0,18, 0.00,60.00,Tuesday
141,118073714.05165815
190,0.0
2,3, 1, 3, 0,19, 0.00,60.00,Tuesday
141,117433108.7751529
190,0.0
2,3, 1, 3, 0,20, 0.00,60.00,Tuesday
141,114598471.24378769
190,0.0
2,3, 1, 3, 0,21, 0.00,60.00,Tuesday
141,107085228.01989698
190,0.0
2,3, 1, 3, 0,22, 0.00,60.00,Tuesday
141,103066565.22623158
190,0.0
2,3, 1, 3, 0,23, 0.00,60.00,Tuesday
141,105951082.9904362
190,0.0
2,3, 1, 3, 0,24, 0.00,60.00,Tuesday
141,110878841.98992135
190,0.0
2,4, 1, 4, 0, 1, 0.00,60.00,Wednesday
141,113366475.51623638
190,0.0
2,4, 1, 4, 0, 2, 0.00,60.00,Wednesday
141,113053287.4139992
190,0.0
2,4, 1, 4, 0, 3, 0.00,60.00,Wednesday
141,112419371.10652195
190,0.0
2,4, 1, 4, 0, 4, 0.00,60.00,Wednesday
141,113376827.62712294
190,0.0
2,4, 1, 4, 0, 5, 0.00,60.00,Wednesday
141,116769957.58268096
190,0.0
2,4, 1, 4, 0, 6, 0.00,60.00,Wednesday
141,116099437.64392601
190,0.0
2,4, 1, 4, 0, 7, 0.00,60.00,Wednesday
141,116114782.54954505
190,0.0
2,4, 1, 4, 0, 8, 0.00,60.00,Wednesday
141,117569686.44846612
190,0.0
2,4, 1, 4, 0, 9, 0.00,60.00,Wednesday
141,118650616.36459821
190,0.0
2,4, 1, 4, 0,10, 0.00,60.00,Wednesday
141,119541352.01890233
190,0.0
2,4, 1, 4, 0,11, 0.00,60.00,Wednesday
141,113841227.01985073
190,0.0
2,4, 1, 4, 0,12, 0.00,60.00,Wednesday
141,104114690.88982956
190,0.0
2,4, 1, 4, 0,13, 0.00,60.00,Wednesday
141,101627955.5213939
190,0.0
2,4, 1, 4, 0,14, 0.00,60.00,Wednesday
141,101409129.10797995
190,0.0
2,4, 1, 4, 0,15, 0.00,60.00,Wednesday
141,100521200.2978527
190,0.0
2,4, 1, 4, 0,16, 0.00,60.00,Wednesday
141,104549144.21949634
190,0.0
2,4, 1, 4, 0,17, 0.00,60.00,Wednesday
141,111710824.80731016
190,0.0
2,4, 1, 4, 0,18, 0.00,60.00,Wednesday
141,117844758.71285559
190,0.0
2,4, 1, 4, 0,19, 0.00,60.00,Wednesday
141,124059168.227976
190,0.0
2,4, 1, 4, 0,20, 0.00,60.00,Wednesday
141,127240484.47288387
190,0.0
2,4, 1, 4, 0,21, 0.00,60.00,Wednesday
141,128629079.21554141
190,0.0
2,4, 1, 4, 0,22, 0.00,60.00,Wednesday
141,131676937.95567276
190,0.0
2,4, 1, 4, 0,23, 0.00,60.00,Wednesday
141,130338165.5776774
190,0.0
2,4, 1, 4, 0,24, 0.00,60.00,Wednesday
141,128152018.18163152
190,0.0
2,5, 1, 5, 0, 1, 0.00,60.00,Thursday
141,129142184.69370441
190,0.0
2,5, 1, 5, 0, 2, 0.00,60.00,Thursday
141,127775417.51579244
190,0.0
2,5, 1, 5, 0, 3, 0.00,60.00,Thursday
141,126480330.08778246
190,0.0
2,5, 1, 5, 0, 4, 0.00,60.00,Thursday
141,127013580.80055737
190,0.0
2,5, 1, 5, 0, 5, 0.00,60.00,Thursday
141,125503714.48621313
190,0.0
2,5, 1, 5, 0, 6, 0.00,60.00,Thursday
141,124981749.78290361
190,0.0
2,5, 1, 5, 0, 7, 0.00,60.00,Thursday
141,126319543.93406767
190,0.0
2,5, 1, 5, 0, 8, 0.00,60.00,Thursday
141,127474428.89307532
190,0.0
2,5, 1, 5, 0, 9, 0.00,60.00,Thursday
141,127926854.54483381
190,0.0
2,5, 1, 5, 0,10, 0.00,60.00,Thursday
141,129877325.68998991
190,0.0
2,5, 1, 5, 0,11, 0.00,60.00,Thursday
141,129365569.5699969
190,0.0
2,5, 1, 5, 0,12, 0.00,60.00,Thursday
141,125076800.38830261
190,0.0
2,5, 1, 5, 0,13, 0.00,60.00,Thursday
141,123478143.07748538
190,0.0
2,5, 1, 5, 0,14, 0.00,60.00,Thursday
141,120218283.04636276
190,0.0
2,5, 1, 5, 0,15, 0.00,60.00,Thursday
141,117456040.32659146
190,0.0
2,5, 1, 5, 0,16, 0.00,60.00,Thursday
141,118959492.50438753
190,0.0
2,5, 1, 5, 0,17, 0.00,60.00,Thursday
141,117904059.76367512
190,0.0
2,5, 1, 5, 0,18, 0.00,60.00,Thursday
141,115993333.47531822
190,0.0
2,5, 1, 5, 0,19, 0.00,60.00,Thursday
141,116152702.65180866
190,0.0
2,5, 1, 5, 0,20, 0.00,60.00,Thursday
141,115487242.1313793
190,0.0
2,5, 1, 5, 0,21, 0.00,60.00,Thursday
141,114592945.54544549
190,0.0
2,5, 1, 5, 0,22, 0.00,60.00,Thursday
141,114307201.20782682
190,0.0
2,5, 1, 5, 0,23, 0.00,60.00,Thursday
141,114641184.55099227
190,0.0
2,5, 1, 5, 0,24, 0.00,60.00,Thursday
141,115089388.11957677
190,0.0
2,6, 1, 6, 0, 1, 0.00,60.00,Friday
141,115346361.26184669
190,0.0
2,6, 1, 6, 0, 2, 0.00,60.00,Friday
141,115616463.68432863
190,0.0
2,6, 1, 6, 0, 3, 0.00,60.00,Friday
141,118293276.9693484
190,0.0
2,6, 1, 6, 0, 4, 0.00,60.00,Friday
141,120902519.65258652
190,0.0
2,6, 1, 6, 0, 5, 0.00,60.00,Friday
141,122227496.51215056
190,0.0
2,6, 1, 6, 0, 6, 0.00,60.00,Friday
141,123889279.59269182
190,0.0
2,6, 1, 6, 0, 7, 0.00,60.00,Friday
141,126414228.15500414
190,0.0
2,6, 1, 6, 0, 8, 0.00,60.00,Friday
141,128841690.75356032
190,0.0
2,6, 1, 6, 0, 9, 0.00,60.00,Friday
141,131814007.29276662
190,0.0
2,6, 1, 6, 0,10, 0.00,60.00,Friday
141,133655781.25078224
190,0.0
2,6, 1, 6, 0,11, 0.00,60.00,Friday
141,131879009.63260323
190,0.0
2,6, 1, 6, 0,12, 0.00,60.00,Friday
141,129063432.28409374
190,0.0
2,6, 1, 6, 0,13, 0.00,60.00,Friday
141,127861822.38360143
190,0.0
2,6, 1, 6, 0,14, 0.00,60.00,Friday
141,127468067.39177814
190,0.0
2,6, 1, 6, 0,15, 0.00,60.00,Friday
141,126729692.89173532
190,0.0
2,6, 1, 6, 0,16, 0.00,60.00,Friday
141,124771293.45244518
190,0.0
2,6, 1, 6, 0,17, 0.00,60.00,Friday
141,122640943.63272917
190,0.0
2,6, 1, 6, 0,18, 0.00,60.00,Friday
141,121498102.49765405
190,0.0
2,6, 1, 6, 0,19, 0.00,60.00,Friday
141,120216919.3814897
190,0.0
2,6, 1, 6, 0,20, 0.00,60.00,Friday
141,117426572.85245526
190,0.0
2,6, 1, 6, 0,21, 0.00,60.00,Friday
141,110712409.71423107
190,0.0
2,6, 1, 6, 0,22, 0.00,60.00,Friday
141,102766435.08532122
190,0.0
2,6, 1, 6, 0,23, 0.00,60.00,Friday
141,99293508.52224825
190,0.0
2,6, 1, 6, 0,24, 0.00,60.00,Friday
141,100182805.23955859
190,0.0
2,7, 1, 7, 0, 1, 0.00,60.00,Saturday
141,106590642.58227488
190,0.0
2,7, 1, 7, 0, 2, 0.00,60.00,Saturday
141,112923230.66226482
190,0.0
2,7, 1, 7, 0, 3, 0.00,60.00,Saturday
141,111975079.18321462
190,0.0
2,7, 1, 7, 0, 4, 0.00,60.00,Saturday
141,112424449.58540168
190,0.0
2,7, 1, 7, 0, 5, 0.00,60.00,Saturday
141,116717184.02168855
190,0.0
2,7, 1, 7, 0, 6, 0.00,60.00,Saturday
141,120109005.87428632
190,0.0
2,7, 1, 7, 0, 7, 0.00,60.00,Saturday
141,122143752.64900649
190,0.0
2,7, 1, 7, 0, 8, 0.00,60.00,Saturday
141,123219698.8208575
190,0.0
2,7, 1, 7, 0, 9, 0.00,60.00,Saturday
141,120944453.55465004
190,0.0
2,7, 1, 7, 0,10, 0.00,60.00,Saturday
141,118977235.76128918
190,0.0
2,7, 1, 7, 0,11, 0.00,60.00,Saturday
141,112855884.95930657
190,0.0
2,7, 1, 7, 0,12, 0.00,60.00,Saturday
141,106704449.26101345
190,0.0
2,7, 1, 7, 0,13, 0.00,60.00,Saturday
141,102257847.61749858
190,0.0
2,7, 1, 7, 0,14, 0.00,60.00,Saturday
141,99982747.16729778
190,0.0
2,7, 1, 7, 0,15, 0.00,60.00,Saturday
141,100884692.35793203
190,0.0
2,7, 1, 7, 0,16, 0.00,60.00,Saturday
141,102683452.55793823
190,0.0
2,7, 1, 7, 0,17, 0.00,60.00,Saturday
141,103941450.86418381
190,0.0
2,7, 1, 7, 0,18, 0.00,60.00,Saturday
141,106444215.96193154
190,0.0
2,7, 1, 7, 0,19, 0.00,60.00,Saturday
141,108764537.50482185
190,0.0
2,7, 1, 7, 0,20, 0.00,60.00,Saturday
141,111078375.04290426
190,0.0
2,7, 1, 7, 0,21, 0.00,60.00,Saturday
141,112707238.33707967
190,0.0
2,7, 1, 7, 0,22, 0.00,60.00,Saturday
141,112533170.13922094
190,0.0
2,7, 1, 7, 0,23, 0.00,60.00,Saturday
141,112753598.93658443
190,0.0
2,7, 1, 7, 0,24, 0.00,60.00,Saturday
141,112528865.25928645
190,0.0
2,8, 1, 8, 0, 1, 0.00,60.00,Sunday
141,110694350.99616675
190,0.0
2,8, 1, 8, 0, 2, 0.00,60.00,Sunday
141,108639996.88171257
190,0.0
2,8, 1, 8, 0, 3, 0.00,60.00,Sunday
141,106871609.72313377
190,0.0
2,8, 1, 8, 0, 4, 0.00,60.00,Sunday
141,104276681.31468174
190,0.0
2,8, 1, 8, 0, 5, 0.00,60.00,Sunday
141,101057328.85631947
190,0.0
2,8, 1, 8, 0, 6, 0.00,60.00,Sunday
141,98671602.0338575
190,0.0
2,8, 1, 8, 0, 7, 0.00,60.00,Sunday
141,96845440.89558843
190,0.0
2,8, 1, 8, 0, 8, 0.00,60.00,Sunday
141,95231667.03884915
190,0.0
2,8, 1, 8, 0, 9, 0.00,60.00,Sunday
141,93464568.80146514
190,0.0
2,8, 1, 8, 0,10, 0.00,60.00,Sunday
141,92851051.04175791
190,0.0
2,8, 1, 8, 0,11, 0.00,60.00,Sunday
141,92312470.3402118
190,0.0
2,8, 1, 8, 0,12, 0.00,60.00,Sunday
141,92531039.63214366
190,0.0
2,8, 1, 8, 0,13, 0.00,60.00,Sunday
141,92009854.10903887
190,0.0
2,8, 1, 8, 0,14, 0.00,60.00,Sunday
141,92218981.35717127
190,0.0
2,8, 1, 8, 0,15, 0.00,60.00,Sunday
141,95905318.30314061
190,0.0
2,8, 1, 8, 0,16, 0.00,60.00,Sunday
141,98511384.82929364
190,0.0
2,8, 1, 8, 0,17, 0.00,60.00,Sunday
141,98468214.5320963
190,0.0
2,8, 1, 8, 0,18, 0.00,60.00,Sunday
141,99580909.27766743
190,0.0
2,8, 1, 8, 0,19, 0.00,60.00,Sunday
141,98833731.26810192
190,0.0
2,8, 1, 8, 0,20, 0.00,60.00,Sunday
141,96461816.89095818
190,0.0
2,8, 1, 8, 0,21, 0.00,60.00,Sunday
141,94802400.70184428
190,0.0
2,8, 1, 8, 0,22, 0.00,60.00,Sunday
141,95364502.14779449
190,0.0
2,8, 1, 8, 0,23, 0.00,60.00,Sunday
141,95924454.47679561
190,0.0
2,8, 1, 8, 0,24, 0.00,60.00,Sunday
141,97446763.97283792
190,0.0
2,9, 1, 9, 0, 1, 0.00,60.00,Monday
141,97840707.38639593
190,0.0
2,9, 1, 9, 0, 2, 0.00,60.00,Monday
141,98133308.19630586
190,0.0
2,9, 1, 9, 0, 3, 0.00,60.00,Monday
141,97933206.03365687
190,0.0
2,9, 1, 9, 0, 4, 0.00,60.00,Monday
141,97227201.06256996
190,0.0
2,9, 1, 9, 0, 5, 0.00,60.00,Monday
141,95461131.99489975
190,0.0
2,9, 1, 9, 0, 6, 0.00,60.00,Monday
141,93670454.26796375
190,0.0
2,9, 1, 9, 0, 7, 0.00,60.00,Monday
141,92404969.2778553
190,0.0
2,9, 1, 9, 0, 8, 0.00,60.00,Monday
141,91753314.44401103
190,0.0
2,9, 1, 9, 0, 9, 0.00,60.00,Monday
141,89723072.9313136
190,0.0
2,9, 1, 9, 0,10, 0.00,60.00,Monday
141,84636683.34898895
190,0.0
2,9, 1, 9, 0,11, 0.00,60.00,Monday
141,80274975.48554619
190,0.0
2,9, 1, 9, 0,12, 0.00,60.00,Monday
141,77833376.41349438
190,0.0
2,9, 1, 9, 0,13, 0.00,60.00,Monday
141,75772407.75847483
190,0.0
2,9, 1, 9, 0,14, 0.00,60.00,Monday
141,74198533.1288726
190,0.0
2,9, 1, 9, 0,15, 0.00,60.00,Monday
141,73521319.76410472
190,0.0
2,9, 1, 9, 0,16, 0.00,60.00,Monday
141,74333927.3716029
190,0.0
2,9, 1, 9, 0,17, 0.00,60.00,Monday
141,77578868.92279321
190,0.0
2,9, 1, 9, 0,18, 0.00,60.00,Monday
141,80638931.54494907
190,0.0
2,9, 1, 9, 0,19, 0.00,60.00,Monday
141,80182623.02419272
190,0.0
2,9, 1, 9, 0,20, 0.00,60.00,Monday
141,75441553.90930492
190,0.0
2,9, 1, 9, 0,21, 0.00,60.00,Monday
141,70681833.36244997
190,0.0
2,9, 1, 9, 0,22, 0.00,60.00,Monday
141,67723568.44032682
190,0.0
2,9, 1, 9, 0,23, 0.00,60.00,Monday
141,67058713.28806805
190,0.0
2,9, 1, 9, 0,24, 0.00,60.00,Monday
141,67177369.38658918
190,0.0
2,10, 1,10, 0, 1, 0.00,60.00,Tuesday
141,68234784.55515128
190,0.0
2,10, 1,10, 0, 2, 0.00,60.00,Tuesday
141,68853155.96434233
190,0.0
2,10, 1,10, 0, 3, 0.00,60.00,Tuesday
141,68738835.83040512
190,0.0
2,10, 1,10, 0, 4, 0.00,60.00,Tuesday
141,69893968.13496356
190,0.0
2,10, 1,10, 0, 5, 0.00,60.00,Tuesday
141,70164179.86967064
190,0.0
2,10, 1,10, 0, 6, 0.00,60.00,Tuesday
141,70107988.10812953
190,0.0
2,10, 1,10, 0, 7, 0.00,60.00,Tuesday
141,70121091.5787571
190,0.0
2,10, 1,10, 0, 8, 0.00,60.00,Tuesday
141,69490567.55644605
190,0.0
2,10, 1,10, 0, 9, 0.00,60.00,Tuesday
141,68684613.93056017
190,0.0
2,10, 1,10, 0,10, 0.00,60.00,Tuesday
141,67653237.04900269
190,0.0
2,10, 1,10, 0,11, 0.00,60.00,Tuesday
141,66198300.03262343
190,0.0
2,10, 1,10, 0,12, 0.00,60.00,Tuesday
141,64557752.419356614
190,0.0
2,10, 1,10, 0,13, 0.00,60.00,Tuesday
141,64298765.75261755
190,0.0
2,10, 1,10, 0,14, 0.00,60.00,Tuesday
141,70296453.60716745
190,0.0
2,10, 1,10, 0,15, 0.00,60.00,Tuesday
141,75157848.39939779
190,0.0
2,10, 1,10, 0,16, 0.00,60.00,Tuesday
141,78191110.40451905
190,0.0
2,10, 1,10, 0,17, 0.00,60.00,Tuesday
141,81372997.10623981
190,0.0
2,10, 1,10, 0,18, 0.00,60.00,Tuesday
141,85542753.91570754
190,0.0
2,10, 1,10, 0,19, 0.00,60.00,Tuesday
141,87934697.94739115
190,0.0
2,10, 1,10, 0,20, 0.00,60.00,Tuesday
141,89924656.52057818
190,0.0
2,10, 1,10, 0,21, 0.00,60.00,Tuesday
141,92976923.73900856
190,0.0
2,10, 1,10, 0,22, 0.00,60.00,Tuesday
141,95081535.86867315
190,0.0
2,10, 1,10, 0,23, 0.00,60.00,Tuesday
141,94959630.8886395
190,0.0
2,10, 1,10, 0,24, 0.00,60.00,Tuesday
141,97438084.09301151
190,0.0
2,11, 1,11, 0, 1, 0.00,60.00,Wednesday
141,98580772.05292603
190,0.0
2,11, 1,11, 0, 2, 0.00,60.00,Wednesday
141,99731577.94088356
190,0.0
2,11, 1,11, 0, 3, 0.00,60.00,Wednesday
141,101512785.45337795
190,0.0
2,11, 1,11, 0, 4, 0.00,60.00,Wednesday
141,101083321.0513864
190,0.0
2,11, 1,11, 0, 5, 0.00,60.00,Wednesday
141,100936922.04954535
190,0.0
2,11, 1,11, 0, 6, 0.00,60.00,Wednesday
141,101263868.11553574
190,0.0
2,11, 1,11, 0, 7, 0.00,60.00,Wednesday
141,102192335.8436625
190,0.0
2,11, 1,11, 0, 8, 0.00,60.00,Wednesday
141,103108840.73380658
190,0.0
2,11, 1,11, 0, 9, 0.00,60.00,Wednesday
141,103283747.45505397
190,0.0
2,11, 1,11, 0,10, 0.00,60.00,Wednesday
141,102932470.97024632
190,0.0
2,11, 1,11, 0,11, 0.00,60.00,Wednesday
141,102023654.59339009
190,0.0
2,11, 1,11, 0,12, 0.00,60.00,Wednesday
141,100270904.84119405
190,0.0
2,11, 1,11, 0,13, 0.00,60.00,Wednesday
141,98865016.56837912
190,0.0
2,11, 1,11, 0,14, 0.00,60.00,Wednesday
141,98193978.76176982
190,0.0
2,11, 1,11, 0,15, 0.00,60.00,Wednesday
141,97833010.08967279
190,0.0
2,11, 1,11, 0,16, 0.00,60.00,Wednesday
141,97532019.96583681
190,0.0
2,11, 1,11, 0,17, 0.00,60.00,Wednesday
141,95980417.14761311
190,0.0
2,11, 1,11, 0,18, 0.00,60.00,Wednesday
141,94425782.25901477
190,0.0
2,11, 1,11, 0,19, 0.00,60.00,Wednesday
141,93214830.76115403
190,0.0
2,11, 1,11, 0,20, 0.00,60.00,Wednesday
141,92717849.86881547
190,0.0
2,11, 1,11, 0,21, 0.00,60.00,Wednesday
141,92362967.49941927
190,0.0
2,11, 1,11, 0,22, 0.00,60.00,Wednesday
141,89972509.50946157
190,0.0
2,11, 1,11, 0,23, 0.00,60.00,Wednesday
141,88143488.52535686
190,0.0
2,11, 1,11, 0,24, 0.00,60.00,Wednesday
141,88151993.4619204
190,0.0
2,12, 1,12, 0, 1, 0.00,60.00,Thursday
141,88854996.36645523
190,0.0
2,12, 1,12, 0, 2, 0.00,60.00,Thursday
141,88882475.71220626
190,0.0
2,12, 1,12, 0, 3, 0.00,60.00,Thursday
141,88302758.24498825
190,0.0
2,12, 1,12, 0, 4, 0.00,60.00,Thursday
141,88312502.87050124
190,0.0
2,12, 1,12, 0, 5, 0.00,60.00,Thursday
141,89018285.46591459
190,0.0
2,12, 1,12, 0, 6, 0.00,60.00,Thursday
141,90763126.81483366
190,0.0
2,12, 1,12, 0, 7, 0.00,60.00,Thursday
141,91699679.23255235
190,0.0
2,12, 1,12, 0, 8, 0.00,60.00,Thursday
141,91915836.87872937
190,0.0
2,12, 1,12, 0, 9, 0.00,60.00,Thursday
141,90648171.20123348
190,0.0
2,12, 1,12, 0,10, 0.00,60.00,Thursday
141,87911233.11165279
190,0.0
2,12, 1,12, 0,11, 0.00,60.00,Thursday
141,85819775.88212225
190,0.0
2,12, 1,12, 0,12, 0.00,60.00,Thursday
141,84609808.70398907
190,0.0
2,12, 1,12, 0,13, 0.00,60.00,Thursday
141,83030072.5654496
190,0.0
2,12, 1,12, 0,14, 0.00,60.00,Thursday
141,81336072.74324429
190,0.0
2,12, 1,12, 0,15, 0.00,60.00,Thursday
141,81262959.59311002
190,0.0
2,12, 1,12, 0,16, 0.00,60.00,Thursday
141,81920483.81249583
190,0.0
2,12, 1,12, 0,17, 0.00,60.00,Thursday
141,85177706.29207167
190,0.0
2,12, 1,12, 0,18, 0.00,60.00,Thursday
141,87061550.59413727
190,0.0
2,12, 1,12, 0,19, 0.00,60.00,Thursday
141,86242411.33928365
190,0.0
2,12, 1,12, 0,20, 0.00,60.00,Thursday
141,84378552.89253338
190,0.0
2,12, 1,12, 0,21, 0.00,60.00,Thursday
141,83587795.17950785
190,0.0
2,12, 1,12, 0,22, 0.00,60.00,Thursday
141,82298507.77724518
190,0.0
2,12, 1,12, 0,23, 0.00,60.00,Thursday
141,81753617.91607578
190,0.0
2,12, 1,12, 0,24, 0.00,60.00,Thursday
141,81729826.35564433
190,0.0
2,13, 1,13, 0, 1, 0.00,60.00,Friday
141,80786792.37105185
190,0.0
2,13, 1,13, 0, 2, 0.00,60.00,Friday
141,79887680.11835699
190,0.0
2,13, 1,13, 0, 3, 0.00,60.00,Friday
141,78609381.91660473
190,0.0
2,13, 1,13, 0, 4, 0.00,60.00,Friday
141,77752813.46957736
190,0.0
2,13, 1,13, 0, 5, 0.00,60.00,Friday
141,77493225.48739569
190,0.0
2,13, 1,13, 0, 6, 0.00,60.00,Friday
141,77512281.77578895
190,0.0
2,13, 1,13, 0, 7, 0.00,60.00,Friday
141,78005366.50988325
190,0.0
2,13, 1,13, 0, 8, 0.00,60.00,Friday
141,77875135.04047202
190,0.0
2,13, 1,13, 0, 9, 0.00,60.00,Friday
141,76899603.62231077
190,0.0
2,13, 1,13, 0,10, 0.00,60.00,Friday
141,78801645.5589713
190,0.0
2,13, 1,13, 0,11, 0.00,60.00,Friday
141,80972502.60890122
190,0.0
2,13, 1,13, 0,12, 0.00,60.00,Friday
141,81032590.20885059
190,0.0
2,13, 1,13, 0,13, 0.00,60.00,Friday
141,81254184.5950426
190,0.0
2,13, 1,13, 0,14, 0.00,60.00,Friday
141,82652636.2372827
190,0.0
2,13, 1,13, 0,15, 0.00,60.00,Friday
141,83439722.38280301
190,0.0
2,13, 1,13, 0,16, 0.00,60.00,Friday
141,83202287.36302741
190,0.0
2,13, 1,13, 0,17, 0.00,60.00,Friday
141,82786043.58747874
190,0.0
2,13, 1,13, 0,18, 0.00,60.00,Friday
141,82622079.8604552
190,0.0
2,13, 1,13, 0,19, 0.00,60.00,Friday
141,84022420.31211433
190,0.0
2,13, 1,13, 0,20, 0.00,60.00,Friday
141,86462521.36285895
190,0.0
2,13, 1,13, 0,21, 0.00,60.00,Friday
141,88670147.3628749
190,0.0
2,13, 1,13, 0,22, 0.00,60.00,Friday
141,90154144.72163747
190,0.0
2,13, 1,13, 0,23, 0.00,60.00,Friday
141,89878662.6280164
190,0.0
2,13, 1,13, 0,24, 0.00,60.00,Friday
141,95738553.5760077
190,0.0
2,14, 1,14, 0, 1, 0.00,60.00,Saturday
141,99914431.71671867
190,0.0
2,14, 1,14, 0, 2, 0.00,60.00,Saturday
141,98685185.39486326
190,0.0
2,14, 1,14, 0, 3, 0.00,60.00,Saturday
141,99372202.51735681
190,0.0
2,14, 1,14, 0, 4, 0.00,60.00,Saturday
141,99117940.7676051
190,0.0
2,14, 1,14, 0, 5, 0.00,60.00,Saturday
141,99270325.82828736
190,0.0
2,14, 1,14, 0, 6, 0.00,60.00,Saturday
141,103627807.35354406
190,0.0
2,14, 1,14, 0, 7, 0.00,60.00,Saturday
141,106978750.41339803
190,0.0
2,14, 1,14, 0, 8, 0.00,60.00,Saturday
141,106305871.23559216
190,0.0
2,14, 1,14, 0, 9, 0.00,60.00,Saturday
141,108282310.64997552
190,0.0
2,14, 1,14, 0,10, 0.00,60.00,Saturday
141,110856521.61888859
190,0.0
2,14, 1,14, 0,11, 0.00,60.00,Saturday
141,110351478.51511869
190,0.0
2,14, 1,14, 0,12, 0.00,60.00,Saturday
141,109379209.22298932
190,0.0
2,14, 1,14, 0,13, 0.00,60.00,Saturday
141,107357866.6202476
190,0.0
2,14, 1,14, 0,14, 0.00,60.00,Saturday
141,102842799.8790821
190,0.0
2,14, 1,14, 0,15, 0.00,60.00,Saturday
141,102371858.43178101
190,0.0
2,14, 1,14, 0,16, 0.00,60.00,Saturday
141,103444396.97295535
190,0.0
2,14, 1,14, 0,17, 0.00,60.00,Saturday
141,105240793.19261079
190,0.0
2,14, 1,14, 0,18, 0.00,60.00,Saturday
141,108641215.06330258
190,0.0
2,14, 1,14, 0,19, 0.00,60.00,Saturday
141,108646741.40016893
190,0.0
2,14, 1,14, 0,20, 0.00,60.00,Saturday
141,109162907.28129432
190,0.0
2,14, 1,14, 0,21, 0.00,60.00,Saturday
141,108648214.58628337
190,0.0
2,14, 1,14, 0,22, 0.00,60.00,Saturday
141,107656221.02836871
190,0.0
2,14, 1,14, 0,23, 0.00,60.00,Saturday
141,107060657.48369905
190,0.0
2,14, 1,14, 0,24, 0.00,60.00,Saturday
141,106999395.99013041
190,0.0
2,15, 1,15, 0, 1, 0.00,60.00,Sunday
141,105162225.7904941
190,0.0
2,15, 1,15, 0, 2, 0.00,60.00,Sunday
141,100362148.01172659
190,0.0
2,15, 1,15, 0, 3, 0.00,60.00,Sunday
141,98125989.24630094
190,0.0
2,15, 1,15, 0, 4, 0.00,60.00,Sunday
141,96558397.688144
190,0.0
2,15, 1,15, 0, 5, 0.00,60.00,Sunday
141,93442071.73528297
190,0.0
2,15, 1,15, 0, 6, 0.00,60.00,Sunday
141,90056595.49484183
190,0.0
2,15, 1,15, 0, 7, 0.00,60.00,Sunday
141,86615961.07389705
190,0.0
2,15, 1,15, 0, 8, 0.00,60.00,Sunday
141,84212804.95436467
190,0.0
2,15, 1,15, 0, 9, 0.00,60.00,Sunday
141,82259352.0396946
190,0.0
2,15, 1,15, 0,10, 0.00,60.00,Sunday
141,81674010.66710405
190,0.0
2,15, 1,15, 0,11, 0.00,60.00,Sunday
141,83041188.47283104
190,0.0
2,15, 1,15, 0,12, 0.00,60.00,Sunday
141,87163694.7365914
190,0.0
2,15, 1,15, 0,13, 0.00,60.00,Sunday
141,90053484.72657694
190,0.0
2,15, 1,15, 0,14, 0.00,60.00,Sunday
141,90958672.81848569
190,0.0
2,15, 1,15, 0,15, 0.00,60.00,Sunday
141,91070579.48513636
190,0.0
2,15, 1,15, 0,16, 0.00,60.00,Sunday
141,89585778.8530615
190,0.0
2,15, 1,15, 0,17, 0.00,60.00,Sunday
141,88540496.5764664
190,0.0
2,15, 1,15, 0,18, 0.00,60.00,Sunday
141,88629709.92349434
190,0.0
2,15, 1,15, 0,19, 0.00,60.00,Sunday
141,89233509.71472883
190,0.0
2,15, 1,15, 0,20, 0.00,60.00,Sunday
141,90075901.03277624
190,0.0
2,15, 1,15, 0,21, 0.00,60.00,Sunday
141,92062498.46410434
190,0.0
2,15, 1,15, 0,22, 0.00,60.00,Sunday
141,92935605.56042744
190,0.0
2,15, 1,15, 0,23, 0.00,60.00,Sunday
141,93033979.19269113
190,0.0
2,15, 1,15, 0,24, 0.00,60.00,Sunday
141,93613598.96927625
190,0.0
2,16, 1,16, 0, 1, 0.00,60.00,Monday
141,95653813.8348524
190,0.0
2,16, 1,16, 0, 2, 0.00,60.00,Monday
141,97620328.40928873
190,0.0
2,16, 1,16, 0, 3, 0.00,60.00,Monday
141,98827397.16140728
190,0.0
2,16, 1,16, 0, 4, 0.00,60.00,Monday
141,99772923.10730319
190,0.0
2,16, 1,16, 0, 5, 0.00,60.00,Monday
141,101080507.4142733
190,0.0
2,16, 1,16, 0, 6, 0.00,60.00,Monday
141,102215838.25253192
190,0.0
2,16, 1,16, 0, 7, 0.00,60.00,Monday
141,104353016.68683015
190,0.0
2,16, 1,16, 0, 8, 0.00,60.00,Monday
141,106367987.09953567
190,0.0
2,16, 1,16, 0, 9, 0.00,60.00,Monday
141,107321483.9807012
190,0.0
2,16, 1,16, 0,10, 0.00,60.00,Monday
141,107504129.182587
190,0.0
2,16, 1,16, 0,11, 0.00,60.00,Monday
141,103540631.58046795
190,0.0
2,16, 1,16, 0,12, 0.00,60.00,Monday
141,100053080.91630736
190,0.0
2,16, 1,16, 0,13, 0.00,60.00,Monday
141,97322611.39998668
190,0.0
2,16, 1,16, 0,14, 0.00,60.00,Monday
141,95448059.17941351
190,0.0
2,16, 1,16, 0,15, 0.00,60.00,Monday
141,95194123.59204987
190,0.0
2,16, 1,16, 0,16, 0.00,60.00,Monday
141,95976104.67596456
190,0.0
2,16, 1,16, 0,17, 0.00,60.00,Monday
141,97983937.9899769
190,0.0
2,16, 1,16, 0,18, 0.00,60.00,Monday
141,101870874.79837917
190,0.0
2,16, 1,16, 0,19, 0.00,60.00,Monday
141,105952626.770395
190,0.0
2,16, 1,16, 0,20, 0.00,60.00,Monday
141,107990202.49765596
190,0.0
2,16, 1,16, 0,21, 0.00,60.00,Monday
141,109589335.11597344
190,0.0
2,16, 1,16, 0,22, 0.00,60.00,Monday
141,111047805.48433639
190,0.0
2,16, 1,16, 0,23, 0.00,60.00,Monday
141,113282883.99761745
190,0.0
2,16, 1,16, 0,24, 0.00,60.00,Monday
141,113752891.21981415
190,0.0
2,17, 1,17, 0, 1, 0.00,60.00,Tuesday
141,114409618.2085317
190,0.0
2,17, 1,17, 0, 2, 0.00,60.00,Tuesday
141,117164227.84537643
190,0.0
2,17, 1,17, 0, 3, 0.00,60.00,Tuesday
141,119525607.10794406
190,0.0
2,17, 1,17, 0, 4, 0.00,60.00,Tuesday
141,121605306.51626071
190,0.0
2,17, 1,17, 0, 5, 0.00,60.00,Tuesday
141,123952024.19751951
190,0.0
2,17, 1,17, 0, 6, 0.00,60.00,Tuesday
141,126345859.54954392
190,0.0
2,17, 1,17, 0, 7, 0.00,60.00,Tuesday
141,127889149.74270535
190,0.0
2,17, 1,17, 0, 8, 0.00,60.00,Tuesday
141,128851432.73001942
190,0.0
2,17, 1,17, 0, 9, 0.00,60.00,Tuesday
141,129279572.41975501
190,0.0
2,17, 1,17, 0,10, 0.00,60.00,Tuesday
141,124852448.69993536
190,0.0
2,17, 1,17, 0,11, 0.00,60.00,Tuesday
141,118187509.03304066
190,0.0
2,17, 1,17, 0,12, 0.00,60.00,Tuesday
141,112470539.50907013
190,0.0
2,17, 1,17, 0,13, 0.00,60.00,Tuesday
141,109186697.10704705
190,0.0
2,17, 1,17, 0,14, 0.00,60.00,Tuesday
141,108478469.39628807
190,0.0
2,17, 1,17, 0,15, 0.00,60.00,Tuesday
141,109429927.3756257
190,0.0
2,17, 1,17, 0,16, 0.00,60.00,Tuesday
141,112374582.40793881
190,0.0
2,17, 1,17, 0,17, 0.00,60.00,Tuesday
141,114420918.5750086
190,0.0
2,17, 1,17, 0,18, 0.00,60.00,Tuesday
141,113962268.35573848
190,0.0
2,17, 1,17, 0,19, 0.00,60.00,Tuesday
141,112999445.49727263
190,0.0
2,17, 1,17, 0,20, 0.00,60.00,Tuesday
141,113002369.35825738
190,0.0
2,17, 1,17, 0,21, 0.00,60.00,Tuesday
141,113590925.77088568
190,0.0
2,17, 1,17, 0,22, 0.00,60.00,Tuesday
141,113450061.71939333
190,0.0
2,17, 1,17, 0,23, 0.00,60.00,Tuesday
141,113396517.23546118
190,0.0
2,17, 1,17, 0,24, 0.00,60.00,Tuesday
141,114749442.81579947
190,0.0
2,18, 1,18, 0, 1, 0.00,60.00,Wednesday
141,115643541.01085791
190,0.0
2,18, 1,18, 0, 2, 0.00,60.00,Wednesday
141,116360633.62084192
190,0.0
2,18, 1,18, 0, 3, 0.00,60.00,Wednesday
141,116697199.4976744
190,0.0
2,18, 1,18, 0, 4, 0.00,60.00,Wednesday
141,116758151.81058419
190,0.0
2,18, 1,18, 0, 5, 0.00,60.00,Wednesday
141,117053285.61977726
190,0.0
2,18, 1,18, 0, 6, 0.00,60.00,Wednesday
141,117629904.89778836
190,0.0
2,18, 1,18, 0, 7, 0.00,60.00,Wednesday
141,120154303.46192195
190,0.0
2,18, 1,18, 0, 8, 0.00,60.00,Wednesday
141,120996921.38729125
190,0.0
2,18, 1,18, 0, 9, 0.00,60.00,Wednesday
141,121487685.2375847
190,0.0
2,18, 1,18, 0,10, 0.00,60.00,Wednesday
141,121432853.17059399
190,0.0
2,18, 1,18, 0,11, 0.00,60.00,Wednesday
141,119218478.28223127
190,0.0
2,18, 1,18, 0,12, 0.00,60.00,Wednesday
141,117517300.96937275
190,0.0
2,18, 1,18, 0,13, 0.00,60.00,Wednesday
141,118340731.72586073
190,0.0
2,18, 1,18, 0,14, 0.00,60.00,Wednesday
141,120048541.35259588
190,0.0
2,18, 1,18, 0,15, 0.00,60.00,Wednesday
141,120892191.4219915
190,0.0
2,18, 1,18, 0,16, 0.00,60.00,Wednesday
141,122738694.74973135
190,0.0
2,18, 1,18, 0,17, 0.00,60.00,Wednesday
141,123550099.19774245
190,0.0
2,18, 1,18, 0,18, 0.00,60.00,Wednesday
141,122585362.87767616
190,0.0
2,18, 1,18, 0,19, 0.00,60.00,Wednesday
141,122036392.96140373
190,0.0
2,18, 1,18, 0,20, 0.00,60.00,Wednesday
141,122252520.90504953
190,0.0
2,18, 1,18, 0,21, 0.00,60.00,Wednesday
141,122409011.53886491
190,0.0
2,18, 1,18, 0,22, 0.00,60.00,Wednesday
141,122989694.34225401
190,0.0
2,18, 1,18, 0,23, 0.00,60.00,Wednesday
141,123412694.84571733
190,0.0
2,18, 1,18, 0,24, 0.00,60.00,Wednesday
141,124008569.02151987
190,0.0
2,19, 1,19, 0, 1, 0.00,60.00,Thursday
141,123256581.4433066
190,0.0