Program Version,EnergyPlus, Version 24.2.0-94a887817b, YMD=2025.04.24 13:20
1,5,Environment Title[],Latitude[deg],Longitude[deg],Time Zone[],Elevation[m]
2,8,Day of Simulation[],Month[],Day of Month[],DST Indicator[1=yes 0=no],Hour[],StartMinute[],EndMinute[],DayType
3,5,Cumulative Day of Simulation[],Month[],Day of Month[],DST Indicator[1=yes 0=no],DayType  ! When Daily Report Variables Requested
4,2,Cumulative Days of Simulation[],Month[]  ! When Monthly Report Variables Requested
5,1,Cumulative Days of Simulation[] ! When Run Period Report Variables Requested
6,1,Calendar Year of Simulation[] ! When Annual Report Variables Requested
141,1,ZONE_0599100000227487 IDEAL LOADS AIR SYSTEM,Zone Ideal Loads Supply Air Total Heating Energy [J] !Hourly
190,1,ZONE_0599100000227487 IDEAL LOADS AIR SYSTEM,Zone Ideal Loads Supply Air Total Cooling Energy [J] !Hourly
End of Data Dictionary
1,RUN PERIOD 1,  51.96,   4.45,   1.00,  -4.50
2,1, 1, 1, 0, 1, 0.00,60.00,Sunday
141,85805857.12531103
190,0.0
2,1, 1, 1, 0, 2, 0.00,60.00,Sunday
141,88563463.04339738
190,0.0
2,1, 1, 1, 0, 3, 0.00,60.00,Sunday
141,88550489.15753733
190,0.0
2,1, 1, 1, 0, 4, 0.00,60.00,Sunday
141,90604014.62385513
190,0.0
2,1, 1, 1, 0, 5, 0.00,60.00,Sunday
141,92050611.75244927
190,0.0
2,1, 1, 1, 0, 6, 0.00,60.00,Sunday
141,92321725.9125258
190,0.0
2,1, 1, 1, 0, 7, 0.00,60.00,Sunday
141,92735506.52172709
190,0.0
2,1, 1, 1, 0, 8, 0.00,60.00,Sunday
141,92761075.42003885
190,0.0
2,1, 1, 1, 0, 9, 0.00,60.00,Sunday
141,92843484.15210281
190,0.0
2,1, 1, 1, 0,10, 0.00,60.00,Sunday
141,92459659.8768726
190,0.0
2,1, 1, 1, 0,11, 0.00,60.00,Sunday
141,91057517.80943075
190,0.0
2,1, 1, 1, 0,12, 0.00,60.00,Sunday
141,88598729.88655598
190,0.0
2,1, 1, 1, 0,13, 0.00,60.00,Sunday
141,87462702.79426758
190,0.0
2,1, 1, 1, 0,14, 0.00,60.00,Sunday
141,85679616.87008509
190,0.0
2,1, 1, 1, 0,15, 0.00,60.00,Sunday
141,84279287.02493
190,0.0
2,1, 1, 1, 0,16, 0.00,60.00,Sunday
141,85239264.56345952
190,0.0
2,1, 1, 1, 0,17, 0.00,60.00,Sunday
141,86396263.91634697
190,0.0
2,1, 1, 1, 0,18, 0.00,60.00,Sunday
141,86428828.21402873
190,0.0
2,1, 1, 1, 0,19, 0.00,60.00,Sunday
141,86433761.00123703
190,0.0
2,1, 1, 1, 0,20, 0.00,60.00,Sunday
141,85996898.9416866
190,0.0
2,1, 1, 1, 0,21, 0.00,60.00,Sunday
141,85484384.20736392
190,0.0
2,1, 1, 1, 0,22, 0.00,60.00,Sunday
141,85500383.70408016
190,0.0
2,1, 1, 1, 0,23, 0.00,60.00,Sunday
141,83511760.26204734
190,0.0
2,1, 1, 1, 0,24, 0.00,60.00,Sunday
141,82068775.3138372
190,0.0
2,2, 1, 2, 0, 1, 0.00,60.00,Monday
141,82329953.31263177
190,0.0
2,2, 1, 2, 0, 2, 0.00,60.00,Monday
141,80427182.27600572
190,0.0
2,2, 1, 2, 0, 3, 0.00,60.00,Monday
141,78967394.27482109
190,0.0
2,2, 1, 2, 0, 4, 0.00,60.00,Monday
141,77472632.51384246
190,0.0
2,2, 1, 2, 0, 5, 0.00,60.00,Monday
141,74171977.5536896
190,0.0
2,2, 1, 2, 0, 6, 0.00,60.00,Monday
141,72548307.99140163
190,0.0
2,2, 1, 2, 0, 7, 0.00,60.00,Monday
141,69989510.71228927
190,0.0
2,2, 1, 2, 0, 8, 0.00,60.00,Monday
141,66842469.493823476
190,0.0
2,2, 1, 2, 0, 9, 0.00,60.00,Monday
141,67547226.04737808
190,0.0
2,2, 1, 2, 0,10, 0.00,60.00,Monday
141,69499513.60919754
190,0.0
2,2, 1, 2, 0,11, 0.00,60.00,Monday
141,70687862.89622177
190,0.0
2,2, 1, 2, 0,12, 0.00,60.00,Monday
141,69056473.3557133
190,0.0
2,2, 1, 2, 0,13, 0.00,60.00,Monday
141,68190824.02281545
190,0.0
2,2, 1, 2, 0,14, 0.00,60.00,Monday
141,69474027.21769562
190,0.0
2,2, 1, 2, 0,15, 0.00,60.00,Monday
141,69962444.35733637
190,0.0
2,2, 1, 2, 0,16, 0.00,60.00,Monday
141,71313287.4303956
190,0.0
2,2, 1, 2, 0,17, 0.00,60.00,Monday
141,72696795.19936346
190,0.0
2,2, 1, 2, 0,18, 0.00,60.00,Monday
141,72975036.42927714
190,0.0
2,2, 1, 2, 0,19, 0.00,60.00,Monday
141,74616049.81535722
190,0.0
2,2, 1, 2, 0,20, 0.00,60.00,Monday
141,76173329.97622424
190,0.0
2,2, 1, 2, 0,21, 0.00,60.00,Monday
141,76563282.26308657
190,0.0
2,2, 1, 2, 0,22, 0.00,60.00,Monday
141,76708455.90056637
190,0.0
2,2, 1, 2, 0,23, 0.00,60.00,Monday
141,76985514.82395312
190,0.0
2,2, 1, 2, 0,24, 0.00,60.00,Monday
141,77319616.23956572
190,0.0
2,3, 1, 3, 0, 1, 0.00,60.00,Tuesday
141,77714319.94451155
190,0.0
2,3, 1, 3, 0, 2, 0.00,60.00,Tuesday
141,77974384.1329825
190,0.0
2,3, 1, 3, 0, 3, 0.00,60.00,Tuesday
141,78179074.12119257
190,0.0
2,3, 1, 3, 0, 4, 0.00,60.00,Tuesday
141,78653002.04176442
190,0.0
2,3, 1, 3, 0, 5, 0.00,60.00,Tuesday
141,80669628.09621009
190,0.0
2,3, 1, 3, 0, 6, 0.00,60.00,Tuesday
141,81992518.336332
190,0.0
2,3, 1, 3, 0, 7, 0.00,60.00,Tuesday
141,82655481.65847349
190,0.0
2,3, 1, 3, 0, 8, 0.00,60.00,Tuesday
141,82556173.9176097
190,0.0
2,3, 1, 3, 0, 9, 0.00,60.00,Tuesday
141,84079267.36904165
190,0.0
2,3, 1, 3, 0,10, 0.00,60.00,Tuesday
141,84813094.11249301
190,0.0
2,3, 1, 3, 0,11, 0.00,60.00,Tuesday
141,84999259.6101791
190,0.0
2,3, 1, 3, 0,12, 0.00,60.00,Tuesday
141,85445326.45621273
190,0.0
2,3, 1, 3, 0,13, 0.00,60.00,Tuesday
141,87729855.69210275
190,0.0
2,3, 1, 3, 0,14, 0.00,60.00,Tuesday
141,89002457.4083057
190,0.0
2,3, 1, 3, 0,15, 0.00,60.00,Tuesday
141,88751111.68348712
190,0.0
2,3, 1, 3, 0,16, 0.00,60.00,Tuesday
141,88511507.57774596
190,0.0
2,3, 1, 3, 0,17, 0.00,60.00,Tuesday
141,88574228.87131079
190,0.0
2,3, 1, 3, 0,18, 0.00,60.00,Tuesday
141,88725798.73962598
190,0.0
2,3, 1, 3, 0,19, 0.00,60.00,Tuesday
141,88307913.37254246
190,0.0
2,3, 1, 3, 0,20, 0.00,60.00,Tuesday
141,86455578.4019034
190,0.0
2,3, 1, 3, 0,21, 0.00,60.00,Tuesday
141,81557253.5918803
190,0.0
2,3, 1, 3, 0,22, 0.00,60.00,Tuesday
141,78950346.61232972
190,0.0
2,3, 1, 3, 0,23, 0.00,60.00,Tuesday
141,80861461.04803278
190,0.0
2,3, 1, 3, 0,24, 0.00,60.00,Tuesday
141,84111913.27450608
190,0.0
2,4, 1, 4, 0, 1, 0.00,60.00,Wednesday
141,85769394.08835486
190,0.0
2,4, 1, 4, 0, 2, 0.00,60.00,Wednesday
141,85602309.12441546
190,0.0
2,4, 1, 4, 0, 3, 0.00,60.00,Wednesday
141,85239644.86911984
190,0.0
2,4, 1, 4, 0, 4, 0.00,60.00,Wednesday
141,85928394.03594688
190,0.0
2,4, 1, 4, 0, 5, 0.00,60.00,Wednesday
141,88207111.46076305
190,0.0
2,4, 1, 4, 0, 6, 0.00,60.00,Wednesday
141,87832155.78642981
190,0.0
2,4, 1, 4, 0, 7, 0.00,60.00,Wednesday
141,87893862.84675492
190,0.0
2,4, 1, 4, 0, 8, 0.00,60.00,Wednesday
141,88882801.41253893
190,0.0
2,4, 1, 4, 0, 9, 0.00,60.00,Wednesday
141,89620091.89721999
190,0.0
2,4, 1, 4, 0,10, 0.00,60.00,Wednesday
141,90229074.44344546
190,0.0
2,4, 1, 4, 0,11, 0.00,60.00,Wednesday
141,86545165.47966069
190,0.0
2,4, 1, 4, 0,12, 0.00,60.00,Wednesday
141,80250181.03572135
190,0.0
2,4, 1, 4, 0,13, 0.00,60.00,Wednesday
141,78686690.46122949
190,0.0
2,4, 1, 4, 0,14, 0.00,60.00,Wednesday
141,78598959.41737424
190,0.0
2,4, 1, 4, 0,15, 0.00,60.00,Wednesday
141,78054133.18220869
190,0.0
2,4, 1, 4, 0,16, 0.00,60.00,Wednesday
141,80685277.86845692
190,0.0
2,4, 1, 4, 0,17, 0.00,60.00,Wednesday
141,85334869.75546691
190,0.0
2,4, 1, 4, 0,18, 0.00,60.00,Wednesday
141,89301408.8369398
190,0.0
2,4, 1, 4, 0,19, 0.00,60.00,Wednesday
141,93320305.05157803
190,0.0
2,4, 1, 4, 0,20, 0.00,60.00,Wednesday
141,95377803.1772821
190,0.0
2,4, 1, 4, 0,21, 0.00,60.00,Wednesday
141,96296893.87797327
190,0.0
2,4, 1, 4, 0,22, 0.00,60.00,Wednesday
141,98335806.44619268
190,0.0
2,4, 1, 4, 0,23, 0.00,60.00,Wednesday
141,97555105.40791808
190,0.0
2,4, 1, 4, 0,24, 0.00,60.00,Wednesday
141,96256623.26604359
190,0.0
2,5, 1, 5, 0, 1, 0.00,60.00,Thursday
141,97053993.45853947
190,0.0
2,5, 1, 5, 0, 2, 0.00,60.00,Thursday
141,96327504.15278833
190,0.0
2,5, 1, 5, 0, 3, 0.00,60.00,Thursday
141,95645041.60908519
190,0.0
2,5, 1, 5, 0, 4, 0.00,60.00,Thursday
141,96140606.84518039
190,0.0
2,5, 1, 5, 0, 5, 0.00,60.00,Thursday
141,95283048.18070593
190,0.0
2,5, 1, 5, 0, 6, 0.00,60.00,Thursday
141,95043136.40064485
190,0.0
2,5, 1, 5, 0, 7, 0.00,60.00,Thursday
141,95988900.20557049
190,0.0
2,5, 1, 5, 0, 8, 0.00,60.00,Thursday
141,96789886.4287408
190,0.0
2,5, 1, 5, 0, 9, 0.00,60.00,Thursday
141,97110834.99995717
190,0.0
2,5, 1, 5, 0,10, 0.00,60.00,Thursday
141,98390727.65732308
190,0.0
2,5, 1, 5, 0,11, 0.00,60.00,Thursday
141,98054060.26222132
190,0.0
2,5, 1, 5, 0,12, 0.00,60.00,Thursday
141,95242499.98776922
190,0.0
2,5, 1, 5, 0,13, 0.00,60.00,Thursday
141,94156332.93212736
190,0.0
2,5, 1, 5, 0,14, 0.00,60.00,Thursday
141,91946549.36396033
190,0.0
2,5, 1, 5, 0,15, 0.00,60.00,Thursday
141,90017977.1095148
190,0.0
2,5, 1, 5, 0,16, 0.00,60.00,Thursday
141,90836473.27982257
190,0.0
2,5, 1, 5, 0,17, 0.00,60.00,Thursday
141,89969109.04948734
190,0.0
2,5, 1, 5, 0,18, 0.00,60.00,Thursday
141,88546940.05777901
190,0.0
2,5, 1, 5, 0,19, 0.00,60.00,Thursday
141,88489739.20842224
190,0.0
2,5, 1, 5, 0,20, 0.00,60.00,Thursday
141,87913462.25383364
190,0.0
2,5, 1, 5, 0,21, 0.00,60.00,Thursday
141,87208204.15627326
190,0.0
2,5, 1, 5, 0,22, 0.00,60.00,Thursday
141,86918310.74889915
190,0.0
2,5, 1, 5, 0,23, 0.00,60.00,Thursday
141,87048248.68552823
190,0.0
2,5, 1, 5, 0,24, 0.00,60.00,Thursday
141,87265635.76968655
190,0.0
2,6, 1, 6, 0, 1, 0.00,60.00,Friday
141,87368147.0648211
190,0.0
2,6, 1, 6, 0, 2, 0.00,60.00,Friday
141,87485852.58216327
190,0.0
2,6, 1, 6, 0, 3, 0.00,60.00,Friday
141,89176551.00404437
190,0.0
2,6, 1, 6, 0, 4, 0.00,60.00,Friday
141,90828141.38984549
190,0.0
2,6, 1, 6, 0, 5, 0.00,60.00,Friday
141,91649377.92070408
190,0.0
2,6, 1, 6, 0, 6, 0.00,60.00,Friday
141,92699090.4172626
190,0.0
2,6, 1, 6, 0, 7, 0.00,60.00,Friday
141,94323518.9037643
190,0.0
2,6, 1, 6, 0, 8, 0.00,60.00,Friday
141,95899618.34865093
190,0.0
2,6, 1, 6, 0, 9, 0.00,60.00,Friday
141,97847936.29179354
190,0.0
2,6, 1, 6, 0,10, 0.00,60.00,Friday
141,99079267.97146943
190,0.0
2,6, 1, 6, 0,11, 0.00,60.00,Friday
141,97974144.61566398
190,0.0
2,6, 1, 6, 0,12, 0.00,60.00,Friday
141,96207406.7079828
190,0.0
2,6, 1, 6, 0,13, 0.00,60.00,Friday
141,95488552.95539364
190,0.0
2,6, 1, 6, 0,14, 0.00,60.00,Friday
141,95270772.08526966
190,0.0
2,6, 1, 6, 0,15, 0.00,60.00,Friday
141,94790829.15096982
190,0.0
2,6, 1, 6, 0,16, 0.00,60.00,Friday
141,93480625.59913501
190,0.0
2,6, 1, 6, 0,17, 0.00,60.00,Friday
141,92038530.35339339
190,0.0
2,6, 1, 6, 0,18, 0.00,60.00,Friday
141,91240040.12191346
190,0.0
2,6, 1, 6, 0,19, 0.00,60.00,Friday
141,90366649.60619898
190,0.0
2,6, 1, 6, 0,20, 0.00,60.00,Friday
141,88534681.97497208
190,0.0
2,6, 1, 6, 0,21, 0.00,60.00,Friday
141,84178572.45859137
190,0.0
2,6, 1, 6, 0,22, 0.00,60.00,Friday
141,79045764.4361194
190,0.0
2,6, 1, 6, 0,23, 0.00,60.00,Friday
141,76833644.06359562
190,0.0
2,6, 1, 6, 0,24, 0.00,60.00,Friday
141,77451353.31622778
190,0.0
2,7, 1, 7, 0, 1, 0.00,60.00,Saturday
141,81640943.78042184
190,0.0
2,7, 1, 7, 0, 2, 0.00,60.00,Saturday
141,85756711.14938036
190,0.0
2,7, 1, 7, 0, 3, 0.00,60.00,Saturday
141,85111868.0259368
190,0.0
2,7, 1, 7, 0, 4, 0.00,60.00,Saturday
141,85372122.02744405
190,0.0
2,7, 1, 7, 0, 5, 0.00,60.00,Saturday
141,88140315.40382095
190,0.0
2,7, 1, 7, 0, 6, 0.00,60.00,Saturday
141,90329387.0167143
190,0.0
2,7, 1, 7, 0, 7, 0.00,60.00,Saturday
141,91643453.71064995
190,0.0
2,7, 1, 7, 0, 8, 0.00,60.00,Saturday
141,92344626.00624329
190,0.0
2,7, 1, 7, 0, 9, 0.00,60.00,Saturday
141,90877640.33774129
190,0.0
2,7, 1, 7, 0,10, 0.00,60.00,Saturday
141,89628443.37066135
190,0.0
2,7, 1, 7, 0,11, 0.00,60.00,Saturday
141,85687935.78493251
190,0.0
2,7, 1, 7, 0,12, 0.00,60.00,Saturday
141,81726403.72625703
190,0.0
2,7, 1, 7, 0,13, 0.00,60.00,Saturday
141,78835511.61303172
190,0.0
2,7, 1, 7, 0,14, 0.00,60.00,Saturday
141,77282460.77949288
190,0.0
2,7, 1, 7, 0,15, 0.00,60.00,Saturday
141,77711264.4556126
190,0.0
2,7, 1, 7, 0,16, 0.00,60.00,Saturday
141,78655007.01471889
190,0.0
2,7, 1, 7, 0,17, 0.00,60.00,Saturday
141,79216298.83910826
190,0.0
2,7, 1, 7, 0,18, 0.00,60.00,Saturday
141,80591697.81429484
190,0.0
2,7, 1, 7, 0,19, 0.00,60.00,Saturday
141,81878069.36573409
190,0.0
2,7, 1, 7, 0,20, 0.00,60.00,Saturday
141,83206022.89861317
190,0.0
2,7, 1, 7, 0,21, 0.00,60.00,Saturday
141,84140856.75236785
190,0.0
2,7, 1, 7, 0,22, 0.00,60.00,Saturday
141,83949849.35405445
190,0.0
2,7, 1, 7, 0,23, 0.00,60.00,Saturday
141,84060124.40229872
190,0.0
2,7, 1, 7, 0,24, 0.00,60.00,Saturday
141,83920653.6542076
190,0.0
2,8, 1, 8, 0, 1, 0.00,60.00,Sunday
141,82774490.02750006
190,0.0
2,8, 1, 8, 0, 2, 0.00,60.00,Sunday
141,81524960.04562204
190,0.0
2,8, 1, 8, 0, 3, 0.00,60.00,Sunday
141,80490169.57045227
190,0.0
2,8, 1, 8, 0, 4, 0.00,60.00,Sunday
141,78929507.54909776
190,0.0
2,8, 1, 8, 0, 5, 0.00,60.00,Sunday
141,76957243.02061233
190,0.0
2,8, 1, 8, 0, 6, 0.00,60.00,Sunday
141,75507916.50541435
190,0.0
2,8, 1, 8, 0, 7, 0.00,60.00,Sunday
141,74393876.11788252
190,0.0
2,8, 1, 8, 0, 8, 0.00,60.00,Sunday
141,73385325.2543784
190,0.0
2,8, 1, 8, 0, 9, 0.00,60.00,Sunday
141,72244094.3869867
190,0.0
2,8, 1, 8, 0,10, 0.00,60.00,Sunday
141,71824160.54503427
190,0.0
2,8, 1, 8, 0,11, 0.00,60.00,Sunday
141,71426538.1299688
190,0.0
2,8, 1, 8, 0,12, 0.00,60.00,Sunday
141,71499787.72421972
190,0.0
2,8, 1, 8, 0,13, 0.00,60.00,Sunday
141,71072945.62177248
190,0.0
2,8, 1, 8, 0,14, 0.00,60.00,Sunday
141,71109384.00265816
190,0.0
2,8, 1, 8, 0,15, 0.00,60.00,Sunday
141,73407551.49988022
190,0.0
2,8, 1, 8, 0,16, 0.00,60.00,Sunday
141,75006257.6762786
190,0.0
2,8, 1, 8, 0,17, 0.00,60.00,Sunday
141,74889743.54621221
190,0.0
2,8, 1, 8, 0,18, 0.00,60.00,Sunday
141,75545583.7820356
190,0.0
2,8, 1, 8, 0,19, 0.00,60.00,Sunday
141,75015212.64493042
190,0.0
2,8, 1, 8, 0,20, 0.00,60.00,Sunday
141,73449486.43209252
190,0.0
2,8, 1, 8, 0,21, 0.00,60.00,Sunday
141,72363552.09727035
190,0.0
2,8, 1, 8, 0,22, 0.00,60.00,Sunday
141,72737529.93973517
190,0.0
2,8, 1, 8, 0,23, 0.00,60.00,Sunday
141,73117800.29643019
190,0.0
2,8, 1, 8, 0,24, 0.00,60.00,Sunday
141,74127720.63574551
190,0.0
2,9, 1, 9, 0, 1, 0.00,60.00,Monday
141,74403402.63869004
190,0.0
2,9, 1, 9, 0, 2, 0.00,60.00,Monday
141,74614858.71682699
190,0.0
2,9, 1, 9, 0, 3, 0.00,60.00,Monday
141,74508815.4952858
190,0.0
2,9, 1, 9, 0, 4, 0.00,60.00,Monday
141,74075339.8681095
190,0.0
2,9, 1, 9, 0, 5, 0.00,60.00,Monday
141,72948567.9882944
190,0.0
2,9, 1, 9, 0, 6, 0.00,60.00,Monday
141,71797608.13643436
190,0.0
2,9, 1, 9, 0, 7, 0.00,60.00,Monday
141,70976712.20317696
190,0.0
2,9, 1, 9, 0, 8, 0.00,60.00,Monday
141,70543207.41233486
190,0.0
2,9, 1, 9, 0, 9, 0.00,60.00,Monday
141,69196046.02171291
190,0.0
2,9, 1, 9, 0,10, 0.00,60.00,Monday
141,65845101.68358728
190,0.0
2,9, 1, 9, 0,11, 0.00,60.00,Monday
141,62958929.34366022
190,0.0
2,9, 1, 9, 0,12, 0.00,60.00,Monday
141,61317594.18718155
190,0.0
2,9, 1, 9, 0,13, 0.00,60.00,Monday
141,59911362.23658494
190,0.0
2,9, 1, 9, 0,14, 0.00,60.00,Monday
141,58802458.55398345
190,0.0
2,9, 1, 9, 0,15, 0.00,60.00,Monday
141,58257208.16982812
190,0.0
2,9, 1, 9, 0,16, 0.00,60.00,Monday
141,58668708.88077639
190,0.0
2,9, 1, 9, 0,17, 0.00,60.00,Monday
141,60661264.65629824
190,0.0
2,9, 1, 9, 0,18, 0.00,60.00,Monday
141,62539448.32585033
190,0.0
2,9, 1, 9, 0,19, 0.00,60.00,Monday
141,62139126.497754544
190,0.0
2,9, 1, 9, 0,20, 0.00,60.00,Monday
141,58961703.13135691
190,0.0
2,9, 1, 9, 0,21, 0.00,60.00,Monday
141,55781642.722635455
190,0.0
2,9, 1, 9, 0,22, 0.00,60.00,Monday
141,53775277.79505725
190,0.0
2,9, 1, 9, 0,23, 0.00,60.00,Monday
141,53252404.294349715
190,0.0
2,9, 1, 9, 0,24, 0.00,60.00,Monday
141,53220838.17564543
190,0.0
2,10, 1,10, 0, 1, 0.00,60.00,Tuesday
141,53779034.94871387
190,0.0
2,10, 1,10, 0, 2, 0.00,60.00,Tuesday
141,54033930.01517596
190,0.0
2,10, 1,10, 0, 3, 0.00,60.00,Tuesday
141,53802578.061596125
190,0.0
2,10, 1,10, 0, 4, 0.00,60.00,Tuesday
141,54396162.14519414
190,0.0
2,10, 1,10, 0, 5, 0.00,60.00,Tuesday
141,54415349.510914125
190,0.0
2,10, 1,10, 0, 6, 0.00,60.00,Tuesday
141,54227892.2270839
190,0.0
2,10, 1,10, 0, 7, 0.00,60.00,Tuesday
141,54095561.72135221
190,0.0
2,10, 1,10, 0, 8, 0.00,60.00,Tuesday
141,53556002.730122775
190,0.0
2,10, 1,10, 0, 9, 0.00,60.00,Tuesday
141,52914117.13371517
190,0.0
2,10, 1,10, 0,10, 0.00,60.00,Tuesday
141,52136444.56395436
190,0.0
2,10, 1,10, 0,11, 0.00,60.00,Tuesday
141,51092520.056212336
190,0.0
2,10, 1,10, 0,12, 0.00,60.00,Tuesday
141,49934959.785716124
190,0.0
2,10, 1,10, 0,13, 0.00,60.00,Tuesday
141,49681210.938386984
190,0.0
2,10, 1,10, 0,14, 0.00,60.00,Tuesday
141,53505685.972017646
190,0.0
2,10, 1,10, 0,15, 0.00,60.00,Tuesday
141,56596512.18007663
190,0.0
2,10, 1,10, 0,16, 0.00,60.00,Tuesday
141,58511372.05396554
190,0.0
2,10, 1,10, 0,17, 0.00,60.00,Tuesday
141,60550015.74820018
190,0.0
2,10, 1,10, 0,18, 0.00,60.00,Tuesday
141,63266500.97074653
190,0.0
2,10, 1,10, 0,19, 0.00,60.00,Tuesday
141,64867670.522826456
190,0.0
2,10, 1,10, 0,20, 0.00,60.00,Tuesday
141,66260216.89874703
190,0.0
2,10, 1,10, 0,21, 0.00,60.00,Tuesday
141,68404581.2632961
190,0.0
2,10, 1,10, 0,22, 0.00,60.00,Tuesday
141,69982007.88856472
190,0.0
2,10, 1,10, 0,23, 0.00,60.00,Tuesday
141,70148225.29689111
190,0.0
2,10, 1,10, 0,24, 0.00,60.00,Tuesday
141,72038491.78449418
190,0.0
2,11, 1,11, 0, 1, 0.00,60.00,Wednesday
141,73078105.52370271
190,0.0
2,11, 1,11, 0, 2, 0.00,60.00,Wednesday
141,74132655.92532928
190,0.0
2,11, 1,11, 0, 3, 0.00,60.00,Wednesday
141,75596963.04003254
190,0.0
2,11, 1,11, 0, 4, 0.00,60.00,Wednesday
141,75604335.101604
190,0.0
2,11, 1,11, 0, 5, 0.00,60.00,Wednesday
141,75764260.3391238
190,0.0
2,11, 1,11, 0, 6, 0.00,60.00,Wednesday
141,76196312.48536466
190,0.0
2,11, 1,11, 0, 7, 0.00,60.00,Wednesday
141,76981318.98238155
190,0.0
2,11, 1,11, 0, 8, 0.00,60.00,Wednesday
141,77724110.40084901
190,0.0
2,11, 1,11, 0, 9, 0.00,60.00,Wednesday
141,77956515.28042026
190,0.0
2,11, 1,11, 0,10, 0.00,60.00,Wednesday
141,77823938.59567988
190,0.0
2,11, 1,11, 0,11, 0.00,60.00,Wednesday
141,77310446.98901798
190,0.0
2,11, 1,11, 0,12, 0.00,60.00,Wednesday
141,76224375.01932518
190,0.0
2,11, 1,11, 0,13, 0.00,60.00,Wednesday
141,75323376.52905554
190,0.0
2,11, 1,11, 0,14, 0.00,60.00,Wednesday
141,74846656.56876124
190,0.0
2,11, 1,11, 0,15, 0.00,60.00,Wednesday
141,74519018.91948105
190,0.0
2,11, 1,11, 0,16, 0.00,60.00,Wednesday
141,74192276.25447842
190,0.0
2,11, 1,11, 0,17, 0.00,60.00,Wednesday
141,73034372.40251917
190,0.0
2,11, 1,11, 0,18, 0.00,60.00,Wednesday
141,71878572.58467934
190,0.0
2,11, 1,11, 0,19, 0.00,60.00,Wednesday
141,70965313.90261024
190,0.0
2,11, 1,11, 0,20, 0.00,60.00,Wednesday
141,70543263.56947508
190,0.0
2,11, 1,11, 0,21, 0.00,60.00,Wednesday
141,70239807.19981185
190,0.0
2,11, 1,11, 0,22, 0.00,60.00,Wednesday
141,68631213.95829009
190,0.0
2,11, 1,11, 0,23, 0.00,60.00,Wednesday
141,67402940.24399668
190,0.0
2,11, 1,11, 0,24, 0.00,60.00,Wednesday
141,67380186.77267921
190,0.0
2,12, 1,12, 0, 1, 0.00,60.00,Thursday
141,67812424.77641812
190,0.0
2,12, 1,12, 0, 2, 0.00,60.00,Thursday
141,67802889.00064394
190,0.0
2,12, 1,12, 0, 3, 0.00,60.00,Thursday
141,67395601.44317669
190,0.0
2,12, 1,12, 0, 4, 0.00,60.00,Thursday
141,67372255.46582359
190,0.0
2,12, 1,12, 0, 5, 0.00,60.00,Thursday
141,67803874.71732418
190,0.0
2,12, 1,12, 0, 6, 0.00,60.00,Thursday
141,68913926.75831848
190,0.0
2,12, 1,12, 0, 7, 0.00,60.00,Thursday
141,69498385.63535185
190,0.0
2,12, 1,12, 0, 8, 0.00,60.00,Thursday
141,69614893.78524616
190,0.0
2,12, 1,12, 0, 9, 0.00,60.00,Thursday
141,68767327.86495286
190,0.0
2,12, 1,12, 0,10, 0.00,60.00,Thursday
141,66965993.95704187
190,0.0
2,12, 1,12, 0,11, 0.00,60.00,Thursday
141,65588157.05066037
190,0.0
2,12, 1,12, 0,12, 0.00,60.00,Thursday
141,64787182.15336442
190,0.0
2,12, 1,12, 0,13, 0.00,60.00,Thursday
141,63751613.00486988
190,0.0
2,12, 1,12, 0,14, 0.00,60.00,Thursday
141,62651098.97451545
190,0.0
2,12, 1,12, 0,15, 0.00,60.00,Thursday
141,62614111.63573146
190,0.0
2,12, 1,12, 0,16, 0.00,60.00,Thursday
141,63055941.09277681
190,0.0
2,12, 1,12, 0,17, 0.00,60.00,Thursday
141,65189797.157273635
190,0.0
2,12, 1,12, 0,18, 0.00,60.00,Thursday
141,66424582.044135414
190,0.0
2,12, 1,12, 0,19, 0.00,60.00,Thursday
141,65894354.779681854
190,0.0
2,12, 1,12, 0,20, 0.00,60.00,Thursday
141,64681349.75440568
190,0.0
2,12, 1,12, 0,21, 0.00,60.00,Thursday
141,64165042.285355866
190,0.0
2,12, 1,12, 0,22, 0.00,60.00,Thursday
141,63316904.00087916
190,0.0
2,12, 1,12, 0,23, 0.00,60.00,Thursday
141,62941206.52332244
190,0.0
2,12, 1,12, 0,24, 0.00,60.00,Thursday
141,62890243.032925956
190,0.0
2,13, 1,13, 0, 1, 0.00,60.00,Friday
141,62226249.78854771
190,0.0
2,13, 1,13, 0, 2, 0.00,60.00,Friday
141,61579116.53998093
190,0.0
2,13, 1,13, 0, 3, 0.00,60.00,Friday
141,60676356.78124975
190,0.0
2,13, 1,13, 0, 4, 0.00,60.00,Friday
141,60042301.73123922
190,0.0
2,13, 1,13, 0, 5, 0.00,60.00,Friday
141,59792730.83585055
190,0.0
2,13, 1,13, 0, 6, 0.00,60.00,Friday
141,59721523.860460505
190,0.0
2,13, 1,13, 0, 7, 0.00,60.00,Friday
141,59959998.12743792
190,0.0
2,13, 1,13, 0, 8, 0.00,60.00,Friday
141,59797837.93056921
190,0.0
2,13, 1,13, 0, 9, 0.00,60.00,Friday
141,59089597.01718821
190,0.0
2,13, 1,13, 0,10, 0.00,60.00,Friday
141,60260719.20726503
190,0.0
2,13, 1,13, 0,11, 0.00,60.00,Friday
141,61615389.58891731
190,0.0
2,13, 1,13, 0,12, 0.00,60.00,Friday
141,61606066.1117944
190,0.0
2,13, 1,13, 0,13, 0.00,60.00,Friday
141,61715516.83606177
190,0.0
2,13, 1,13, 0,14, 0.00,60.00,Friday
141,62608767.91075058
190,0.0
2,13, 1,13, 0,15, 0.00,60.00,Friday
141,63118730.16644336
190,0.0
2,13, 1,13, 0,16, 0.00,60.00,Friday
141,62975301.47535618
190,0.0
2,13, 1,13, 0,17, 0.00,60.00,Friday
141,62725933.303977385
190,0.0
2,13, 1,13, 0,18, 0.00,60.00,Friday
141,62638761.54048333
190,0.0
2,13, 1,13, 0,19, 0.00,60.00,Friday
141,63563028.32754315
190,0.0
2,13, 1,13, 0,20, 0.00,60.00,Friday
141,65158779.65108925
190,0.0
2,13, 1,13, 0,21, 0.00,60.00,Friday
141,66606766.35979524
190,0.0
2,13, 1,13, 0,22, 0.00,60.00,Friday
141,67604910.33304083
190,0.0
2,13, 1,13, 0,23, 0.00,60.00,Friday
141,67490056.7935143
190,0.0
2,13, 1,13, 0,24, 0.00,60.00,Friday
141,71404963.04555303
190,0.0
2,14, 1,14, 0, 1, 0.00,60.00,Saturday
141,74244660.54949246
190,0.0
2,14, 1,14, 0, 2, 0.00,60.00,Saturday
141,73569882.97614741
190,0.0
2,14, 1,14, 0, 3, 0.00,60.00,Saturday
141,74139436.5401372
190,0.0
2,14, 1,14, 0, 4, 0.00,60.00,Saturday
141,74087911.39711109
190,0.0
2,14, 1,14, 0, 5, 0.00,60.00,Saturday
141,74293123.065307
190,0.0
2,14, 1,14, 0, 6, 0.00,60.00,Saturday
141,77234990.62436976
190,0.0
2,14, 1,14, 0, 7, 0.00,60.00,Saturday
141,79530873.167619
190,0.0
2,14, 1,14, 0, 8, 0.00,60.00,Saturday
141,79224919.9515943
190,0.0
2,14, 1,14, 0, 9, 0.00,60.00,Saturday
141,80668071.52123307
190,0.0
2,14, 1,14, 0,10, 0.00,60.00,Saturday
141,82521729.8509493
190,0.0
2,14, 1,14, 0,11, 0.00,60.00,Saturday
141,82374441.6406444
190,0.0
2,14, 1,14, 0,12, 0.00,60.00,Saturday
141,81910485.05015288
190,0.0
2,14, 1,14, 0,13, 0.00,60.00,Saturday
141,80739112.26736535
190,0.0
2,14, 1,14, 0,14, 0.00,60.00,Saturday
141,77908318.33811052
190,0.0
2,14, 1,14, 0,15, 0.00,60.00,Saturday
141,77672047.39274444
190,0.0
2,14, 1,14, 0,16, 0.00,60.00,Saturday
141,78400851.06122552
190,0.0
2,14, 1,14, 0,17, 0.00,60.00,Saturday
141,79571411.24082847
190,0.0
2,14, 1,14, 0,18, 0.00,60.00,Saturday
141,81789773.10064337
190,0.0
2,14, 1,14, 0,19, 0.00,60.00,Saturday
141,81829082.5452111
190,0.0
2,14, 1,14, 0,20, 0.00,60.00,Saturday
141,82242213.71266806
190,0.0
2,14, 1,14, 0,21, 0.00,60.00,Saturday
141,82020042.43000777
190,0.0
2,14, 1,14, 0,22, 0.00,60.00,Saturday
141,81513234.49297914
190,0.0
2,14, 1,14, 0,23, 0.00,60.00,Saturday
141,81279527.62096883
190,0.0
2,14, 1,14, 0,24, 0.00,60.00,Saturday
141,81397491.22593708
190,0.0
2,15, 1,15, 0, 1, 0.00,60.00,Sunday
141,80351847.76410581
190,0.0
2,15, 1,15, 0, 2, 0.00,60.00,Sunday
141,77361164.33586769
190,0.0
2,15, 1,15, 0, 3, 0.00,60.00,Sunday
141,76017390.56703992
190,0.0
2,15, 1,15, 0, 4, 0.00,60.00,Sunday
141,75075741.85975264
190,0.0
2,15, 1,15, 0, 5, 0.00,60.00,Sunday
141,73083941.4564581
190,0.0
2,15, 1,15, 0, 6, 0.00,60.00,Sunday
141,70873723.89193745
190,0.0
2,15, 1,15, 0, 7, 0.00,60.00,Sunday
141,68587024.16413026
190,0.0
2,15, 1,15, 0, 8, 0.00,60.00,Sunday
141,66940253.98808156
190,0.0
2,15, 1,15, 0, 9, 0.00,60.00,Sunday
141,65554131.57244475
190,0.0
2,15, 1,15, 0,10, 0.00,60.00,Sunday
141,65030259.62825441
190,0.0
2,15, 1,15, 0,11, 0.00,60.00,Sunday
141,65752879.7985385
190,0.0
2,15, 1,15, 0,12, 0.00,60.00,Sunday
141,68247534.93979955
190,0.0
2,15, 1,15, 0,13, 0.00,60.00,Sunday
141,69927397.44092199
190,0.0
2,15, 1,15, 0,14, 0.00,60.00,Sunday
141,70319675.58571343
190,0.0
2,15, 1,15, 0,15, 0.00,60.00,Sunday
141,70221956.31199533
190,0.0
2,15, 1,15, 0,16, 0.00,60.00,Sunday
141,69117788.67772067
190,0.0
2,15, 1,15, 0,17, 0.00,60.00,Sunday
141,68335006.21445075
190,0.0
2,15, 1,15, 0,18, 0.00,60.00,Sunday
141,68318320.66076213
190,0.0
2,15, 1,15, 0,19, 0.00,60.00,Sunday
141,68649521.96399987
190,0.0
2,15, 1,15, 0,20, 0.00,60.00,Sunday
141,69140203.86884145
190,0.0
2,15, 1,15, 0,21, 0.00,60.00,Sunday
141,70386134.72144747
190,0.0
2,15, 1,15, 0,22, 0.00,60.00,Sunday
141,70927714.09716623
190,0.0
2,15, 1,15, 0,23, 0.00,60.00,Sunday
141,70989420.68042289
190,0.0
2,15, 1,15, 0,24, 0.00,60.00,Sunday
141,71391322.7662001
190,0.0
2,16, 1,16, 0, 1, 0.00,60.00,Monday
141,72768594.32122722
190,0.0
2,16, 1,16, 0, 2, 0.00,60.00,Monday
141,74117254.04930243
190,0.0
2,16, 1,16, 0, 3, 0.00,60.00,Monday
141,74984714.85393675
190,0.0
2,16, 1,16, 0, 4, 0.00,60.00,Monday
141,75684336.39854161
190,0.0
2,16, 1,16, 0, 5, 0.00,60.00,Monday
141,76610742.74804203
190,0.0
2,16, 1,16, 0, 6, 0.00,60.00,Monday
141,77412032.4440016
190,0.0
2,16, 1,16, 0, 7, 0.00,60.00,Monday
141,78855350.15012594
190,0.0
2,16, 1,16, 0, 8, 0.00,60.00,Monday
141,80212031.79825856
190,0.0
2,16, 1,16, 0, 9, 0.00,60.00,Monday
141,80873797.6412822
190,0.0
2,16, 1,16, 0,10, 0.00,60.00,Monday
141,81033673.09390245
190,0.0
2,16, 1,16, 0,11, 0.00,60.00,Monday
141,78494671.79969858
190,0.0
2,16, 1,16, 0,12, 0.00,60.00,Monday
141,76259419.12108001
190,0.0
2,16, 1,16, 0,13, 0.00,60.00,Monday
141,74486040.03587043
190,0.0
2,16, 1,16, 0,14, 0.00,60.00,Monday
141,73224872.0742189
190,0.0
2,16, 1,16, 0,15, 0.00,60.00,Monday
141,73001523.15809765
190,0.0
2,16, 1,16, 0,16, 0.00,60.00,Monday
141,73468928.15237437
190,0.0
2,16, 1,16, 0,17, 0.00,60.00,Monday
141,74761282.57562517
190,0.0
2,16, 1,16, 0,18, 0.00,60.00,Monday
141,77298169.37040424
190,0.0
2,16, 1,16, 0,19, 0.00,60.00,Monday
141,79966714.5204803
190,0.0
2,16, 1,16, 0,20, 0.00,60.00,Monday
141,81297822.19774386
190,0.0
2,16, 1,16, 0,21, 0.00,60.00,Monday
141,82339520.64664593
190,0.0
2,16, 1,16, 0,22, 0.00,60.00,Monday
141,83290650.98065156
190,0.0
2,16, 1,16, 0,23, 0.00,60.00,Monday
141,84750667.8304349
190,0.0
2,16, 1,16, 0,24, 0.00,60.00,Monday
141,85064008.43840382
190,0.0
2,17, 1,17, 0, 1, 0.00,60.00,Tuesday
141,85509604.78979689
190,0.0
2,17, 1,17, 0, 2, 0.00,60.00,Tuesday
141,87350528.29558012
190,0.0
2,17, 1,17, 0, 3, 0.00,60.00,Tuesday
141,88972305.5862991
190,0.0
2,17, 1,17, 0, 4, 0.00,60.00,Tuesday
141,90438285.11936975
190,0.0
2,17, 1,17, 0, 5, 0.00,60.00,Tuesday
141,92091657.14522907
190,0.0
2,17, 1,17, 0, 6, 0.00,60.00,Tuesday
141,93780771.46132216
190,0.0
2,17, 1,17, 0, 7, 0.00,60.00,Tuesday
141,94918266.52342649
190,0.0
2,17, 1,17, 0, 8, 0.00,60.00,Tuesday
141,95679998.18571626
190,0.0
2,17, 1,17, 0, 9, 0.00,60.00,Tuesday
141,96097316.88395873
190,0.0
2,17, 1,17, 0,10, 0.00,60.00,Tuesday
141,93354940.82902496
190,0.0
2,17, 1,17, 0,11, 0.00,60.00,Tuesday
141,89155735.60703398
190,0.0
2,17, 1,17, 0,12, 0.00,60.00,Tuesday
141,85558659.22345915
190,0.0
2,17, 1,17, 0,13, 0.00,60.00,Tuesday
141,83491178.01344293
190,0.0
2,17, 1,17, 0,14, 0.00,60.00,Tuesday
141,83008335.48362374
190,0.0
2,17, 1,17, 0,15, 0.00,60.00,Tuesday
141,83503246.06609057
190,0.0
2,17, 1,17, 0,16, 0.00,60.00,Tuesday
141,85214000.0152013
190,0.0
2,17, 1,17, 0,17, 0.00,60.00,Tuesday
141,86301965.56821959
190,0.0
2,17, 1,17, 0,18, 0.00,60.00,Tuesday
141,85757583.65083984
190,0.0
2,17, 1,17, 0,19, 0.00,60.00,Tuesday
141,84913823.0121195
190,0.0
2,17, 1,17, 0,20, 0.00,60.00,Tuesday
141,84748798.81038378
190,0.0
2,17, 1,17, 0,21, 0.00,60.00,Tuesday
141,85022132.09668556
190,0.0
2,17, 1,17, 0,22, 0.00,60.00,Tuesday
141,84870796.95056084
190,0.0
2,17, 1,17, 0,23, 0.00,60.00,Tuesday
141,84817968.26594773
190,0.0
2,17, 1,17, 0,24, 0.00,60.00,Tuesday
141,85713816.33245733
190,0.0
2,18, 1,18, 0, 1, 0.00,60.00,Wednesday
141,86338408.31207651
190,0.0
2,18, 1,18, 0, 2, 0.00,60.00,Wednesday
141,86880890.25406568
190,0.0
2,18, 1,18, 0, 3, 0.00,60.00,Wednesday
141,87211298.83488464
190,0.0
2,18, 1,18, 0, 4, 0.00,60.00,Wednesday
141,87385128.96566282
190,0.0
2,18, 1,18, 0, 5, 0.00,60.00,Wednesday
141,87715924.68219991
190,0.0
2,18, 1,18, 0, 6, 0.00,60.00,Wednesday
141,88222317.95281702
190,0.0
2,18, 1,18, 0, 7, 0.00,60.00,Wednesday
141,89984618.11051114
190,0.0
2,18, 1,18, 0, 8, 0.00,60.00,Wednesday
141,90636846.23778668
190,0.0
2,18, 1,18, 0, 9, 0.00,60.00,Wednesday
141,91046304.15225741
190,0.0
2,18, 1,18, 0,10, 0.00,60.00,Wednesday
141,91089278.29675731
190,0.0
2,18, 1,18, 0,11, 0.00,60.00,Wednesday
141,89716134.499969
190,0.0
2,18, 1,18, 0,12, 0.00,60.00,Wednesday
141,88667089.72016802
190,0.0
2,18, 1,18, 0,13, 0.00,60.00,Wednesday
141,89247990.16397862
190,0.0
2,18, 1,18, 0,14, 0.00,60.00,Wednesday
141,90384872.56863563
190,0.0
2,18, 1,18, 0,15, 0.00,60.00,Wednesday
141,90936761.51144952
190,0.0
2,18, 1,18, 0,16, 0.00,60.00,Wednesday
141,92124184.98015666
190,0.0
2,18, 1,18, 0,17, 0.00,60.00,Wednesday
141,92627853.23890233
190,0.0
2,18, 1,18, 0,18, 0.00,60.00,Wednesday
141,91974666.03395517
190,0.0
2,18, 1,18, 0,19, 0.00,60.00,Wednesday
141,91602909.96143974
190,0.0
2,18, 1,18, 0,20, 0.00,60.00,Wednesday
141,91744126.25692639
190,0.0
2,18, 1,18, 0,21, 0.00,60.00,Wednesday
141,91856998.38671948
190,0.0
2,18, 1,18, 0,22, 0.00,60.00,Wednesday
141,92250343.19969597
190,0.0
2,18, 1,18, 0,23, 0.00,60.00,Wednesday
141,92541703.03687526
190,0.0
2,18, 1,18, 0,24, 0.00,60.00,Wednesday
141,92943454.12281404
190,0.0
2,19, 1,19, 0, 1, 0.00,60.00,Thursday
141,92463707.32898228
190,0.0
2,19, 1,19, 0, 2, 0.00,60.00,Thursday
141,92695387.45699875
190,0.0
2,19, 1,19, 0, 3, 0.00,60.00,Thursday
141,94027522.30164184
190,0.0
2,19, 1,19, 0, 4, 0.00,60.00,Thursday
141,94004348.39623123
190,0.0
2,19, 1,19, 0, 5, 0.00,60.00,Thursday
141,94754804.00444107