Program Version,EnergyPlus, Version 24.2.0-94a887817b, YMD=2025.04.24 13:21
1,5,Environment Title[],Latitude[deg],Longitude[deg],Time Zone[],Elevation[m]
2,8,Day of Simulation[],Month[],Day of Month[],DST Indicator[1=yes 0=no],Hour[],StartMinute[],EndMinute[],DayType
3,5,Cumulative Day of Simulation[],Month[],Day of Month[],DST Indicator[1=yes 0=no],DayType  ! When Daily Report Variables Requested
4,2,Cumulative Days of Simulation[],Month[]  ! When Monthly Report Variables Requested
5,1,Cumulative Days of Simulation[] ! When Run Period Report Variables Requested
6,1,Calendar Year of Simulation[] ! When Annual Report Variables Requested
141,1,ZONE_0599100000432460 IDEAL LOADS AIR SYSTEM,Zone Ideal Loads Supply Air Total Heating Energy [J] !Hourly
190,1,ZONE_0599100000432460 IDEAL LOADS AIR SYSTEM,Zone Ideal Loads Supply Air Total Cooling Energy [J] !Hourly
End of Data Dictionary
1,RUN PERIOD 1,  51.96,   4.45,   1.00,  -4.50
2,1, 1, 1, 0, 1, 0.00,60.00,Sunday
141,27558934.654843017
190,0.0
2,1, 1, 1, 0, 2, 0.00,60.00,Sunday
141,28538252.875180054
190,0.0
2,1, 1, 1, 0, 3, 0.00,60.00,Sunday
141,28526754.906518273
190,0.0
2,1, 1, 1, 0, 4, 0.00,60.00,Sunday
141,29248045.419927686
190,0.0
2,1, 1, 1, 0, 5, 0.00,60.00,Sunday
141,29738079.73244616
190,0.0
2,1, 1, 1, 0, 6, 0.00,60.00,Sunday
141,29789177.95917628
190,0.0
2,1, 1, 1, 0, 7, 0.00,60.00,Sunday
141,29872965.531263676
190,0.0
2,1, 1, 1, 0, 8, 0.00,60.00,Sunday
141,29802401.70519026
190,0.0
2,1, 1, 1, 0, 9, 0.00,60.00,Sunday
141,29739486.20850486
190,0.0
2,1, 1, 1, 0,10, 0.00,60.00,Sunday
141,29500860.743660055
190,0.0
2,1, 1, 1, 0,11, 0.00,60.00,Sunday
141,28893291.63113434
190,0.0
2,1, 1, 1, 0,12, 0.00,60.00,Sunday
141,27912701.472898107
190,0.0
2,1, 1, 1, 0,13, 0.00,60.00,Sunday
141,27430243.218500108
190,0.0
2,1, 1, 1, 0,14, 0.00,60.00,Sunday
141,26766540.762840718
190,0.0
2,1, 1, 1, 0,15, 0.00,60.00,Sunday
141,26306736.092652105
190,0.0
2,1, 1, 1, 0,16, 0.00,60.00,Sunday
141,26757776.4413962
190,0.0
2,1, 1, 1, 0,17, 0.00,60.00,Sunday
141,27326502.210963037
190,0.0
2,1, 1, 1, 0,18, 0.00,60.00,Sunday
141,27509959.337012377
190,0.0
2,1, 1, 1, 0,19, 0.00,60.00,Sunday
141,27671777.562060058
190,0.0
2,1, 1, 1, 0,20, 0.00,60.00,Sunday
141,27645605.50296062
190,0.0
2,1, 1, 1, 0,21, 0.00,60.00,Sunday
141,27555488.79353173
190,0.0
2,1, 1, 1, 0,22, 0.00,60.00,Sunday
141,27619518.10524931
190,0.0
2,1, 1, 1, 0,23, 0.00,60.00,Sunday
141,26939258.9814023
190,0.0
2,1, 1, 1, 0,24, 0.00,60.00,Sunday
141,26433387.596960805
190,0.0
2,2, 1, 2, 0, 1, 0.00,60.00,Monday
141,26523482.846145198
190,0.0
2,2, 1, 2, 0, 2, 0.00,60.00,Monday
141,25835319.911445882
190,0.0
2,2, 1, 2, 0, 3, 0.00,60.00,Monday
141,25306496.782674856
190,0.0
2,2, 1, 2, 0, 4, 0.00,60.00,Monday
141,24771020.525119253
190,0.0
2,2, 1, 2, 0, 5, 0.00,60.00,Monday
141,23601259.63701813
190,0.0
2,2, 1, 2, 0, 6, 0.00,60.00,Monday
141,23045897.275177114
190,0.0
2,2, 1, 2, 0, 7, 0.00,60.00,Monday
141,22174928.943268843
190,0.0
2,2, 1, 2, 0, 8, 0.00,60.00,Monday
141,21114960.707085174
190,0.0
2,2, 1, 2, 0, 9, 0.00,60.00,Monday
141,21453598.564310282
190,0.0
2,2, 1, 2, 0,10, 0.00,60.00,Monday
141,22260411.028824534
190,0.0
2,2, 1, 2, 0,11, 0.00,60.00,Monday
141,22814575.851096444
190,0.0
2,2, 1, 2, 0,12, 0.00,60.00,Monday
141,22375009.475429893
190,0.0
2,2, 1, 2, 0,13, 0.00,60.00,Monday
141,22201945.574804265
190,0.0
2,2, 1, 2, 0,14, 0.00,60.00,Monday
141,22765801.456223592
190,0.0
2,2, 1, 2, 0,15, 0.00,60.00,Monday
141,23007672.669917062
190,0.0
2,2, 1, 2, 0,16, 0.00,60.00,Monday
141,23523926.520387378
190,0.0
2,2, 1, 2, 0,17, 0.00,60.00,Monday
141,24022501.07430962
190,0.0
2,2, 1, 2, 0,18, 0.00,60.00,Monday
141,24099499.73252532
190,0.0
2,2, 1, 2, 0,19, 0.00,60.00,Monday
141,24639586.739936695
190,0.0
2,2, 1, 2, 0,20, 0.00,60.00,Monday
141,25129151.97543619
190,0.0
2,2, 1, 2, 0,21, 0.00,60.00,Monday
141,25184525.57210601
190,0.0
2,2, 1, 2, 0,22, 0.00,60.00,Monday
141,25138056.438031882
190,0.0
2,2, 1, 2, 0,23, 0.00,60.00,Monday
141,25125679.199479192
190,0.0
2,2, 1, 2, 0,24, 0.00,60.00,Monday
141,25124204.41411254
190,0.0
2,3, 1, 3, 0, 1, 0.00,60.00,Tuesday
141,25140881.9986634
190,0.0
2,3, 1, 3, 0, 2, 0.00,60.00,Tuesday
141,25110686.00699917
190,0.0
2,3, 1, 3, 0, 3, 0.00,60.00,Tuesday
141,25065693.65617767
190,0.0
2,3, 1, 3, 0, 4, 0.00,60.00,Tuesday
141,25128455.372074127
190,0.0
2,3, 1, 3, 0, 5, 0.00,60.00,Tuesday
141,25760379.29412493
190,0.0
2,3, 1, 3, 0, 6, 0.00,60.00,Tuesday
141,26164329.761150993
190,0.0
2,3, 1, 3, 0, 7, 0.00,60.00,Tuesday
141,26350968.44509793
190,0.0
2,3, 1, 3, 0, 8, 0.00,60.00,Tuesday
141,26280395.821179193
190,0.0
2,3, 1, 3, 0, 9, 0.00,60.00,Tuesday
141,26800570.92307921
190,0.0
2,3, 1, 3, 0,10, 0.00,60.00,Tuesday
141,27047160.915259555
190,0.0
2,3, 1, 3, 0,11, 0.00,60.00,Tuesday
141,27104924.57157727
190,0.0
2,3, 1, 3, 0,12, 0.00,60.00,Tuesday
141,27260487.05369496
190,0.0
2,3, 1, 3, 0,13, 0.00,60.00,Tuesday
141,28072490.720439143
190,0.0
2,3, 1, 3, 0,14, 0.00,60.00,Tuesday
141,28517056.47715895
190,0.0
2,3, 1, 3, 0,15, 0.00,60.00,Tuesday
141,28415971.471796237
190,0.0
2,3, 1, 3, 0,16, 0.00,60.00,Tuesday
141,28325200.972156774
190,0.0
2,3, 1, 3, 0,17, 0.00,60.00,Tuesday
141,28351268.002146997
190,0.0
2,3, 1, 3, 0,18, 0.00,60.00,Tuesday
141,28417410.54424961
190,0.0
2,3, 1, 3, 0,19, 0.00,60.00,Tuesday
141,28286082.805749357
190,0.0
2,3, 1, 3, 0,20, 0.00,60.00,Tuesday
141,27644670.505892076
190,0.0
2,3, 1, 3, 0,21, 0.00,60.00,Tuesday
141,25911392.70699817
190,0.0
2,3, 1, 3, 0,22, 0.00,60.00,Tuesday
141,24981530.83064977
190,0.0
2,3, 1, 3, 0,23, 0.00,60.00,Tuesday
141,25644626.212849095
190,0.0
2,3, 1, 3, 0,24, 0.00,60.00,Tuesday
141,26775954.80409731
190,0.0
2,4, 1, 4, 0, 1, 0.00,60.00,Wednesday
141,27339892.18376217
190,0.0
2,4, 1, 4, 0, 2, 0.00,60.00,Wednesday
141,27251465.37501356
190,0.0
2,4, 1, 4, 0, 3, 0.00,60.00,Wednesday
141,27081092.3198298
190,0.0
2,4, 1, 4, 0, 4, 0.00,60.00,Wednesday
141,27271467.059522565
190,0.0
2,4, 1, 4, 0, 5, 0.00,60.00,Wednesday
141,28021659.66455768
190,0.0
2,4, 1, 4, 0, 6, 0.00,60.00,Wednesday
141,27822857.3978517
190,0.0
2,4, 1, 4, 0, 7, 0.00,60.00,Wednesday
141,27784368.902669683
190,0.0
2,4, 1, 4, 0, 8, 0.00,60.00,Wednesday
141,28083660.324951798
190,0.0
2,4, 1, 4, 0, 9, 0.00,60.00,Wednesday
141,28299411.94170312
190,0.0
2,4, 1, 4, 0,10, 0.00,60.00,Wednesday
141,28473699.066109113
190,0.0
2,4, 1, 4, 0,11, 0.00,60.00,Wednesday
141,27113154.39996615
190,0.0
2,4, 1, 4, 0,12, 0.00,60.00,Wednesday
141,24811223.130932696
190,0.0
2,4, 1, 4, 0,13, 0.00,60.00,Wednesday
141,24192842.120925885
190,0.0
2,4, 1, 4, 0,14, 0.00,60.00,Wednesday
141,24110560.23738194
190,0.0
2,4, 1, 4, 0,15, 0.00,60.00,Wednesday
141,23892041.256207395
190,0.0
2,4, 1, 4, 0,16, 0.00,60.00,Wednesday
141,24840572.534693617
190,0.0
2,4, 1, 4, 0,17, 0.00,60.00,Wednesday
141,26537438.95315066
190,0.0
2,4, 1, 4, 0,18, 0.00,60.00,Wednesday
141,28007194.261357673
190,0.0
2,4, 1, 4, 0,19, 0.00,60.00,Wednesday
141,29499118.97617191
190,0.0
2,4, 1, 4, 0,20, 0.00,60.00,Wednesday
141,30277736.689910535
190,0.0
2,4, 1, 4, 0,21, 0.00,60.00,Wednesday
141,30622212.418323047
190,0.0
2,4, 1, 4, 0,22, 0.00,60.00,Wednesday
141,31330130.150916226
190,0.0
2,4, 1, 4, 0,23, 0.00,60.00,Wednesday
141,30992481.35144832
190,0.0
2,4, 1, 4, 0,24, 0.00,60.00,Wednesday
141,30435087.228926733
190,0.0
2,5, 1, 5, 0, 1, 0.00,60.00,Thursday
141,30599458.347156145
190,0.0
2,5, 1, 5, 0, 2, 0.00,60.00,Thursday
141,30205192.027108636
190,0.0
2,5, 1, 5, 0, 3, 0.00,60.00,Thursday
141,29826403.946537245
190,0.0
2,5, 1, 5, 0, 4, 0.00,60.00,Thursday
141,29878230.328277163
190,0.0
2,5, 1, 5, 0, 5, 0.00,60.00,Thursday
141,29462510.03202475
190,0.0
2,5, 1, 5, 0, 6, 0.00,60.00,Thursday
141,29287492.256230924
190,0.0
2,5, 1, 5, 0, 7, 0.00,60.00,Thursday
141,29558419.256831087
190,0.0
2,5, 1, 5, 0, 8, 0.00,60.00,Thursday
141,29800662.66479751
190,0.0
2,5, 1, 5, 0, 9, 0.00,60.00,Thursday
141,29893398.05077681
190,0.0
2,5, 1, 5, 0,10, 0.00,60.00,Thursday
141,30347523.23039616
190,0.0
2,5, 1, 5, 0,11, 0.00,60.00,Thursday
141,30238137.9779735
190,0.0
2,5, 1, 5, 0,12, 0.00,60.00,Thursday
141,29258554.94688009
190,0.0
2,5, 1, 5, 0,13, 0.00,60.00,Thursday
141,28920394.686443746
190,0.0
2,5, 1, 5, 0,14, 0.00,60.00,Thursday
141,28220117.87196359
190,0.0
2,5, 1, 5, 0,15, 0.00,60.00,Thursday
141,27666355.070797455
190,0.0
2,5, 1, 5, 0,16, 0.00,60.00,Thursday
141,28134772.95678132
190,0.0
2,5, 1, 5, 0,17, 0.00,60.00,Thursday
141,28028197.63362038
190,0.0
2,5, 1, 5, 0,18, 0.00,60.00,Thursday
141,27730427.7134321
190,0.0
2,5, 1, 5, 0,19, 0.00,60.00,Thursday
141,27909526.487042468
190,0.0
2,5, 1, 5, 0,20, 0.00,60.00,Thursday
141,27882911.698964097
190,0.0
2,5, 1, 5, 0,21, 0.00,60.00,Thursday
141,27786272.362441085
190,0.0
2,5, 1, 5, 0,22, 0.00,60.00,Thursday
141,27814644.574354175
190,0.0
2,5, 1, 5, 0,23, 0.00,60.00,Thursday
141,27971700.0151065
190,0.0
2,5, 1, 5, 0,24, 0.00,60.00,Thursday
141,28141843.871015523
190,0.0
2,6, 1, 6, 0, 1, 0.00,60.00,Friday
141,28256677.365579113
190,0.0
2,6, 1, 6, 0, 2, 0.00,60.00,Friday
141,28366344.08056765
190,0.0
2,6, 1, 6, 0, 3, 0.00,60.00,Friday
141,29029826.41475023
190,0.0
2,6, 1, 6, 0, 4, 0.00,60.00,Friday
141,29672059.75651665
190,0.0
2,6, 1, 6, 0, 5, 0.00,60.00,Friday
141,30009625.468783215
190,0.0
2,6, 1, 6, 0, 6, 0.00,60.00,Friday
141,30418668.818180505
190,0.0
2,6, 1, 6, 0, 7, 0.00,60.00,Friday
141,31019753.620938897
190,0.0
2,6, 1, 6, 0, 8, 0.00,60.00,Friday
141,31587232.104240038
190,0.0
2,6, 1, 6, 0, 9, 0.00,60.00,Friday
141,32269197.50751327
190,0.0
2,6, 1, 6, 0,10, 0.00,60.00,Friday
141,32673597.130752943
190,0.0
2,6, 1, 6, 0,11, 0.00,60.00,Friday
141,32220037.917449564
190,0.0
2,6, 1, 6, 0,12, 0.00,60.00,Friday
141,31511268.11940851
190,0.0
2,6, 1, 6, 0,13, 0.00,60.00,Friday
141,31174919.46904746
190,0.0
2,6, 1, 6, 0,14, 0.00,60.00,Friday
141,31038867.263119735
190,0.0
2,6, 1, 6, 0,15, 0.00,60.00,Friday
141,30848432.71539882
190,0.0
2,6, 1, 6, 0,16, 0.00,60.00,Friday
141,30405209.956807643
190,0.0
2,6, 1, 6, 0,17, 0.00,60.00,Friday
141,29947302.298550077
190,0.0
2,6, 1, 6, 0,18, 0.00,60.00,Friday
141,29730107.98093519
190,0.0
2,6, 1, 6, 0,19, 0.00,60.00,Friday
141,29476098.575692948
190,0.0
2,6, 1, 6, 0,20, 0.00,60.00,Friday
141,28854816.856719892
190,0.0
2,6, 1, 6, 0,21, 0.00,60.00,Friday
141,27296762.965532452
190,0.0
2,6, 1, 6, 0,22, 0.00,60.00,Friday
141,25431502.089929286
190,0.0
2,6, 1, 6, 0,23, 0.00,60.00,Friday
141,24599053.549727336
190,0.0
2,6, 1, 6, 0,24, 0.00,60.00,Friday
141,24785557.04932773
190,0.0
2,7, 1, 7, 0, 1, 0.00,60.00,Saturday
141,26267266.16743903
190,0.0
2,7, 1, 7, 0, 2, 0.00,60.00,Saturday
141,27743834.19229804
190,0.0
2,7, 1, 7, 0, 3, 0.00,60.00,Saturday
141,27534768.79043369
190,0.0
2,7, 1, 7, 0, 4, 0.00,60.00,Saturday
141,27652760.547057677
190,0.0
2,7, 1, 7, 0, 5, 0.00,60.00,Saturday
141,28659276.897452984
190,0.0
2,7, 1, 7, 0, 6, 0.00,60.00,Saturday
141,29445547.53383325
190,0.0
2,7, 1, 7, 0, 7, 0.00,60.00,Saturday
141,29904017.126400374
190,0.0
2,7, 1, 7, 0, 8, 0.00,60.00,Saturday
141,30126616.238849334
190,0.0
2,7, 1, 7, 0, 9, 0.00,60.00,Saturday
141,29555849.508404516
190,0.0
2,7, 1, 7, 0,10, 0.00,60.00,Saturday
141,29043486.0925366
190,0.0
2,7, 1, 7, 0,11, 0.00,60.00,Saturday
141,27552928.61666364
190,0.0
2,7, 1, 7, 0,12, 0.00,60.00,Saturday
141,26052458.52554425
190,0.0
2,7, 1, 7, 0,13, 0.00,60.00,Saturday
141,24966208.631482724
190,0.0
2,7, 1, 7, 0,14, 0.00,60.00,Saturday
141,24428139.119903788
190,0.0
2,7, 1, 7, 0,15, 0.00,60.00,Saturday
141,24689408.556506414
190,0.0
2,7, 1, 7, 0,16, 0.00,60.00,Saturday
141,25220250.293727867
190,0.0
2,7, 1, 7, 0,17, 0.00,60.00,Saturday
141,25669749.33652259
190,0.0
2,7, 1, 7, 0,18, 0.00,60.00,Saturday
141,26426594.45563886
190,0.0
2,7, 1, 7, 0,19, 0.00,60.00,Saturday
141,27131969.70612958
190,0.0
2,7, 1, 7, 0,20, 0.00,60.00,Saturday
141,27807124.517779525
190,0.0
2,7, 1, 7, 0,21, 0.00,60.00,Saturday
141,28286487.286812644
190,0.0
2,7, 1, 7, 0,22, 0.00,60.00,Saturday
141,28308783.017000273
190,0.0
2,7, 1, 7, 0,23, 0.00,60.00,Saturday
141,28389121.401612066
190,0.0
2,7, 1, 7, 0,24, 0.00,60.00,Saturday
141,28336208.952771783
190,0.0
2,8, 1, 8, 0, 1, 0.00,60.00,Sunday
141,27880216.741639204
190,0.0
2,8, 1, 8, 0, 2, 0.00,60.00,Sunday
141,27347654.356224418
190,0.0
2,8, 1, 8, 0, 3, 0.00,60.00,Sunday
141,26863626.051048353
190,0.0
2,8, 1, 8, 0, 4, 0.00,60.00,Sunday
141,26178619.009960376
190,0.0
2,8, 1, 8, 0, 5, 0.00,60.00,Sunday
141,25349924.682204694
190,0.0
2,8, 1, 8, 0, 6, 0.00,60.00,Sunday
141,24726157.186410327
190,0.0
2,8, 1, 8, 0, 7, 0.00,60.00,Sunday
141,24249220.23027104
190,0.0
2,8, 1, 8, 0, 8, 0.00,60.00,Sunday
141,23840704.976694614
190,0.0
2,8, 1, 8, 0, 9, 0.00,60.00,Sunday
141,23415684.627724856
190,0.0
2,8, 1, 8, 0,10, 0.00,60.00,Sunday
141,23277063.507013835
190,0.0
2,8, 1, 8, 0,11, 0.00,60.00,Sunday
141,23171622.747326326
190,0.0
2,8, 1, 8, 0,12, 0.00,60.00,Sunday
141,23255677.35546379
190,0.0
2,8, 1, 8, 0,13, 0.00,60.00,Sunday
141,23178333.78955687
190,0.0
2,8, 1, 8, 0,14, 0.00,60.00,Sunday
141,23278575.835838772
190,0.0
2,8, 1, 8, 0,15, 0.00,60.00,Sunday
141,24190361.44587984
190,0.0
2,8, 1, 8, 0,16, 0.00,60.00,Sunday
141,24847475.57184833
190,0.0
2,8, 1, 8, 0,17, 0.00,60.00,Sunday
141,24880466.663924426
190,0.0
2,8, 1, 8, 0,18, 0.00,60.00,Sunday
141,25169936.588469207
190,0.0
2,8, 1, 8, 0,19, 0.00,60.00,Sunday
141,25010072.158811867
190,0.0
2,8, 1, 8, 0,20, 0.00,60.00,Sunday
141,24456303.029907063
190,0.0
2,8, 1, 8, 0,21, 0.00,60.00,Sunday
141,24056416.990175955
190,0.0
2,8, 1, 8, 0,22, 0.00,60.00,Sunday
141,24164299.908457946
190,0.0
2,8, 1, 8, 0,23, 0.00,60.00,Sunday
141,24265018.264020912
190,0.0
2,8, 1, 8, 0,24, 0.00,60.00,Sunday
141,24586627.439167146
190,0.0
2,9, 1, 9, 0, 1, 0.00,60.00,Monday
141,24644269.20124131
190,0.0
2,9, 1, 9, 0, 2, 0.00,60.00,Monday
141,24677009.173710436
190,0.0
2,9, 1, 9, 0, 3, 0.00,60.00,Monday
141,24592853.36605856
190,0.0
2,9, 1, 9, 0, 4, 0.00,60.00,Monday
141,24387969.246135898
190,0.0
2,9, 1, 9, 0, 5, 0.00,60.00,Monday
141,23934115.524681527
190,0.0
2,9, 1, 9, 0, 6, 0.00,60.00,Monday
141,23475358.232210793
190,0.0
2,9, 1, 9, 0, 7, 0.00,60.00,Monday
141,23143921.055909973
190,0.0
2,9, 1, 9, 0, 8, 0.00,60.00,Monday
141,22963703.58403488
190,0.0
2,9, 1, 9, 0, 9, 0.00,60.00,Monday
141,22472817.105161235
190,0.0
2,9, 1, 9, 0,10, 0.00,60.00,Monday
141,21281257.940996446
190,0.0
2,9, 1, 9, 0,11, 0.00,60.00,Monday
141,20266642.47046418
190,0.0
2,9, 1, 9, 0,12, 0.00,60.00,Monday
141,19706321.09314199
190,0.0
2,9, 1, 9, 0,13, 0.00,60.00,Monday
141,19244996.24756101
190,0.0
2,9, 1, 9, 0,14, 0.00,60.00,Monday
141,18910839.65002832
190,0.0
2,9, 1, 9, 0,15, 0.00,60.00,Monday
141,18799174.38762199
190,0.0
2,9, 1, 9, 0,16, 0.00,60.00,Monday
141,19043993.487774357
190,0.0
2,9, 1, 9, 0,17, 0.00,60.00,Monday
141,19858256.679853812
190,0.0
2,9, 1, 9, 0,18, 0.00,60.00,Monday
141,20626441.947347824
190,0.0
2,9, 1, 9, 0,19, 0.00,60.00,Monday
141,20568566.60649655
190,0.0
2,9, 1, 9, 0,20, 0.00,60.00,Monday
141,19503783.498286013
190,0.0
2,9, 1, 9, 0,21, 0.00,60.00,Monday
141,18427049.442848958
190,0.0
2,9, 1, 9, 0,22, 0.00,60.00,Monday
141,17767012.944988847
190,0.0
2,9, 1, 9, 0,23, 0.00,60.00,Monday
141,17644289.941872258
190,0.0
2,9, 1, 9, 0,24, 0.00,60.00,Monday
141,17712464.507693253
190,0.0
2,10, 1,10, 0, 1, 0.00,60.00,Tuesday
141,18009697.371960975
190,0.0
2,10, 1,10, 0, 2, 0.00,60.00,Tuesday
141,18213649.51371386
190,0.0
2,10, 1,10, 0, 3, 0.00,60.00,Tuesday
141,18251890.065532967
190,0.0
2,10, 1,10, 0, 4, 0.00,60.00,Tuesday
141,18586455.41227907
190,0.0
2,10, 1,10, 0, 5, 0.00,60.00,Tuesday
141,18712931.869091034
190,0.0
2,10, 1,10, 0, 6, 0.00,60.00,Tuesday
141,18758359.579880163
190,0.0
2,10, 1,10, 0, 7, 0.00,60.00,Tuesday
141,18811777.786389425
190,0.0
2,10, 1,10, 0, 8, 0.00,60.00,Tuesday
141,18705651.818995588
190,0.0
2,10, 1,10, 0, 9, 0.00,60.00,Tuesday
141,18549375.95676095
190,0.0
2,10, 1,10, 0,10, 0.00,60.00,Tuesday
141,18332495.109150846
190,0.0
2,10, 1,10, 0,11, 0.00,60.00,Tuesday
141,18010071.61918696
190,0.0
2,10, 1,10, 0,12, 0.00,60.00,Tuesday
141,17639069.40902451
190,0.0
2,10, 1,10, 0,13, 0.00,60.00,Tuesday
141,17586787.000625353
190,0.0
2,10, 1,10, 0,14, 0.00,60.00,Tuesday
141,18989761.131945394
190,0.0
2,10, 1,10, 0,15, 0.00,60.00,Tuesday
141,20125084.29542668
190,0.0
2,10, 1,10, 0,16, 0.00,60.00,Tuesday
141,20826728.73860286
190,0.0
2,10, 1,10, 0,17, 0.00,60.00,Tuesday
141,21547589.74253304
190,0.0
2,10, 1,10, 0,18, 0.00,60.00,Tuesday
141,22478853.804235842
190,0.0
2,10, 1,10, 0,19, 0.00,60.00,Tuesday
141,22971586.635852173
190,0.0
2,10, 1,10, 0,20, 0.00,60.00,Tuesday
141,23339511.30686618
190,0.0
2,10, 1,10, 0,21, 0.00,60.00,Tuesday
141,23920339.09876968
190,0.0
2,10, 1,10, 0,22, 0.00,60.00,Tuesday
141,24248748.567628235
190,0.0
2,10, 1,10, 0,23, 0.00,60.00,Tuesday
141,24034551.71161058
190,0.0
2,10, 1,10, 0,24, 0.00,60.00,Tuesday
141,24408372.975056693
190,0.0
2,11, 1,11, 0, 1, 0.00,60.00,Wednesday
141,24460590.15677395
190,0.0
2,11, 1,11, 0, 2, 0.00,60.00,Wednesday
141,24510608.82338725
190,0.0
2,11, 1,11, 0, 3, 0.00,60.00,Wednesday
141,24709892.73495668
190,0.0
2,11, 1,11, 0, 4, 0.00,60.00,Wednesday
141,24404994.306520365
190,0.0
2,11, 1,11, 0, 5, 0.00,60.00,Wednesday
141,24183155.51566529
190,0.0
2,11, 1,11, 0, 6, 0.00,60.00,Wednesday
141,24092424.052750483
190,0.0
2,11, 1,11, 0, 7, 0.00,60.00,Wednesday
141,24162721.130609795
190,0.0
2,11, 1,11, 0, 8, 0.00,60.00,Wednesday
141,24251095.727513783
190,0.0
2,11, 1,11, 0, 9, 0.00,60.00,Wednesday
141,24187055.74236879
190,0.0
2,11, 1,11, 0,10, 0.00,60.00,Wednesday
141,24018779.484862894
190,0.0
2,11, 1,11, 0,11, 0.00,60.00,Wednesday
141,23736830.521918945
190,0.0
2,11, 1,11, 0,12, 0.00,60.00,Wednesday
141,23276116.495850142
190,0.0
2,11, 1,11, 0,13, 0.00,60.00,Wednesday
141,22922349.133193303
190,0.0
2,11, 1,11, 0,14, 0.00,60.00,Wednesday
141,22775706.832958974
190,0.0
2,11, 1,11, 0,15, 0.00,60.00,Wednesday
141,22742255.18361663
190,0.0
2,11, 1,11, 0,16, 0.00,60.00,Wednesday
141,22761332.951496694
190,0.0
2,11, 1,11, 0,17, 0.00,60.00,Wednesday
141,22517261.445617966
190,0.0
2,11, 1,11, 0,18, 0.00,60.00,Wednesday
141,22283465.80534288
190,0.0
2,11, 1,11, 0,19, 0.00,60.00,Wednesday
141,22123010.47850594
190,0.0
2,11, 1,11, 0,20, 0.00,60.00,Wednesday
141,22109908.761543356
190,0.0
2,11, 1,11, 0,21, 0.00,60.00,Wednesday
141,22106616.30343131
190,0.0
2,11, 1,11, 0,22, 0.00,60.00,Wednesday
141,21607937.66474615
190,0.0
2,11, 1,11, 0,23, 0.00,60.00,Wednesday
141,21223240.48862
190,0.0
2,11, 1,11, 0,24, 0.00,60.00,Wednesday
141,21255302.1359898
190,0.0
2,12, 1,12, 0, 1, 0.00,60.00,Thursday
141,21443419.694899123
190,0.0
2,12, 1,12, 0, 2, 0.00,60.00,Thursday
141,21472546.296548575
190,0.0
2,12, 1,12, 0, 3, 0.00,60.00,Thursday
141,21359555.924627006
190,0.0
2,12, 1,12, 0, 4, 0.00,60.00,Thursday
141,21381669.786681365
190,0.0
2,12, 1,12, 0, 5, 0.00,60.00,Thursday
141,21562449.961235005
190,0.0
2,12, 1,12, 0, 6, 0.00,60.00,Thursday
141,21981870.1382363
190,0.0
2,12, 1,12, 0, 7, 0.00,60.00,Thursday
141,22210944.219403975
190,0.0
2,12, 1,12, 0, 8, 0.00,60.00,Thursday
141,22270839.829321366
190,0.0
2,12, 1,12, 0, 9, 0.00,60.00,Thursday
141,21984070.453721613
190,0.0
2,12, 1,12, 0,10, 0.00,60.00,Thursday
141,21354485.559140265
190,0.0
2,12, 1,12, 0,11, 0.00,60.00,Thursday
141,20875388.09459978
190,0.0
2,12, 1,12, 0,12, 0.00,60.00,Thursday
141,20602521.348709494
190,0.0
2,12, 1,12, 0,13, 0.00,60.00,Thursday
141,20243574.264900215
190,0.0
2,12, 1,12, 0,14, 0.00,60.00,Thursday
141,19855631.98525551
190,0.0
2,12, 1,12, 0,15, 0.00,60.00,Thursday
141,19842847.730832465
190,0.0
2,12, 1,12, 0,16, 0.00,60.00,Thursday
141,19999724.446211923
190,0.0
2,12, 1,12, 0,17, 0.00,60.00,Thursday
141,20763061.145095013
190,0.0
2,12, 1,12, 0,18, 0.00,60.00,Thursday
141,21209088.58613037
190,0.0
2,12, 1,12, 0,19, 0.00,60.00,Thursday
141,21027871.912431605
190,0.0
2,12, 1,12, 0,20, 0.00,60.00,Thursday
141,20604037.512385458
190,0.0
2,12, 1,12, 0,21, 0.00,60.00,Thursday
141,20430274.509353872
190,0.0
2,12, 1,12, 0,22, 0.00,60.00,Thursday
141,20143006.647300016
190,0.0
2,12, 1,12, 0,23, 0.00,60.00,Thursday
141,20034544.468059555
190,0.0
2,12, 1,12, 0,24, 0.00,60.00,Thursday
141,20054363.392464045
190,0.0
2,13, 1,13, 0, 1, 0.00,60.00,Friday
141,19867132.68137332
190,0.0
2,13, 1,13, 0, 2, 0.00,60.00,Friday
141,19695927.727969483
190,0.0
2,13, 1,13, 0, 3, 0.00,60.00,Friday
141,19440602.444855295
190,0.0
2,13, 1,13, 0, 4, 0.00,60.00,Friday
141,19286072.061234765
190,0.0
2,13, 1,13, 0, 5, 0.00,60.00,Friday
141,19272069.196800657
190,0.0
2,13, 1,13, 0, 6, 0.00,60.00,Friday
141,19323642.535960406
190,0.0
2,13, 1,13, 0, 7, 0.00,60.00,Friday
141,19483998.687821805
190,0.0
2,13, 1,13, 0, 8, 0.00,60.00,Friday
141,19494960.804982286
190,0.0
2,13, 1,13, 0, 9, 0.00,60.00,Friday
141,19305014.86991869
190,0.0
2,13, 1,13, 0,10, 0.00,60.00,Friday
141,19780748.73200585
190,0.0
2,13, 1,13, 0,11, 0.00,60.00,Friday
141,20312946.814804778
190,0.0
2,13, 1,13, 0,12, 0.00,60.00,Friday
141,20346326.49205361
190,0.0
2,13, 1,13, 0,13, 0.00,60.00,Friday
141,20407919.256090347
190,0.0
2,13, 1,13, 0,14, 0.00,60.00,Friday
141,20732519.540438235
190,0.0
2,13, 1,13, 0,15, 0.00,60.00,Friday
141,20905152.620066117
190,0.0
2,13, 1,13, 0,16, 0.00,60.00,Friday
141,20830048.457703687
190,0.0
2,13, 1,13, 0,17, 0.00,60.00,Friday
141,20706331.134996913
190,0.0
2,13, 1,13, 0,18, 0.00,60.00,Friday
141,20641769.515045088
190,0.0
2,13, 1,13, 0,19, 0.00,60.00,Friday
141,20944875.036096726
190,0.0
2,13, 1,13, 0,20, 0.00,60.00,Friday
141,21491596.255281318
190,0.0
2,13, 1,13, 0,21, 0.00,60.00,Friday
141,21979580.488597665
190,0.0
2,13, 1,13, 0,22, 0.00,60.00,Friday
141,22285349.926185437
190,0.0
2,13, 1,13, 0,23, 0.00,60.00,Friday
141,22163037.872327685
190,0.0
2,13, 1,13, 0,24, 0.00,60.00,Friday
141,23451225.625817608
190,0.0
2,14, 1,14, 0, 1, 0.00,60.00,Saturday
141,24335781.240850125
190,0.0
2,14, 1,14, 0, 2, 0.00,60.00,Saturday
141,23958094.12175564
190,0.0
2,14, 1,14, 0, 3, 0.00,60.00,Saturday
141,24027791.421692662
190,0.0
2,14, 1,14, 0, 4, 0.00,60.00,Saturday
141,23882568.172288366
190,0.0
2,14, 1,14, 0, 5, 0.00,60.00,Saturday
141,23837727.644367833
190,0.0
2,14, 1,14, 0, 6, 0.00,60.00,Saturday
141,24775844.53969722
190,0.0
2,14, 1,14, 0, 7, 0.00,60.00,Saturday
141,25477858.246032983
190,0.0
2,14, 1,14, 0, 8, 0.00,60.00,Saturday
141,25236320.179238316
190,0.0
2,14, 1,14, 0, 9, 0.00,60.00,Saturday
141,25602264.89257594
190,0.0
2,14, 1,14, 0,10, 0.00,60.00,Saturday
141,26099276.992692478
190,0.0
2,14, 1,14, 0,11, 0.00,60.00,Saturday
141,25877378.034206565
190,0.0
2,14, 1,14, 0,12, 0.00,60.00,Saturday
141,25552614.10888107
190,0.0
2,14, 1,14, 0,13, 0.00,60.00,Saturday
141,24997691.261016503
190,0.0
2,14, 1,14, 0,14, 0.00,60.00,Saturday
141,23884684.575777534
190,0.0
2,14, 1,14, 0,15, 0.00,60.00,Saturday
141,23742270.776793055
190,0.0
2,14, 1,14, 0,16, 0.00,60.00,Saturday
141,23992259.877749003
190,0.0
2,14, 1,14, 0,17, 0.00,60.00,Saturday
141,24439432.00166851
190,0.0
2,14, 1,14, 0,18, 0.00,60.00,Saturday
141,25266622.954976067
190,0.0
2,14, 1,14, 0,19, 0.00,60.00,Saturday
141,25286395.020776354
190,0.0
2,14, 1,14, 0,20, 0.00,60.00,Saturday
141,25398122.37937054
190,0.0
2,14, 1,14, 0,21, 0.00,60.00,Saturday
141,25244131.431112617
190,0.0
2,14, 1,14, 0,22, 0.00,60.00,Saturday
141,24959132.94139563
190,0.0
2,14, 1,14, 0,23, 0.00,60.00,Saturday
141,24753966.539831523
190,0.0
2,14, 1,14, 0,24, 0.00,60.00,Saturday
141,24668270.59704052
190,0.0
2,15, 1,15, 0, 1, 0.00,60.00,Sunday
141,24171254.89383899
190,0.0
2,15, 1,15, 0, 2, 0.00,60.00,Sunday
141,22992175.034694724
190,0.0
2,15, 1,15, 0, 3, 0.00,60.00,Sunday
141,22422334.27338927
190,0.0
2,15, 1,15, 0, 4, 0.00,60.00,Sunday
141,22025551.073677495
190,0.0
2,15, 1,15, 0, 5, 0.00,60.00,Sunday
141,21290516.374511655
190,0.0
2,15, 1,15, 0, 6, 0.00,60.00,Sunday
141,20517800.389395695
190,0.0
2,15, 1,15, 0, 7, 0.00,60.00,Sunday
141,19757033.46327115
190,0.0
2,15, 1,15, 0, 8, 0.00,60.00,Sunday
141,19261071.40058025
190,0.0
2,15, 1,15, 0, 9, 0.00,60.00,Sunday
141,18890798.5148569
190,0.0
2,15, 1,15, 0,10, 0.00,60.00,Sunday
141,18857544.11324283
190,0.0
2,15, 1,15, 0,11, 0.00,60.00,Sunday
141,19294600.07437442
190,0.0
2,15, 1,15, 0,12, 0.00,60.00,Sunday
141,20385666.861915965
190,0.0
2,15, 1,15, 0,13, 0.00,60.00,Sunday
141,21198048.0638312
190,0.0
2,15, 1,15, 0,14, 0.00,60.00,Sunday
141,21547258.56956972
190,0.0
2,15, 1,15, 0,15, 0.00,60.00,Sunday
141,21698363.709321618
190,0.0
2,15, 1,15, 0,16, 0.00,60.00,Sunday
141,21456865.04426453
190,0.0
2,15, 1,15, 0,17, 0.00,60.00,Sunday
141,21295137.22786375
190,0.0
2,15, 1,15, 0,18, 0.00,60.00,Sunday
141,21378504.571296357
190,0.0
2,15, 1,15, 0,19, 0.00,60.00,Sunday
141,21570339.727617733
190,0.0
2,15, 1,15, 0,20, 0.00,60.00,Sunday
141,21811506.676600177
190,0.0
2,15, 1,15, 0,21, 0.00,60.00,Sunday
141,22310201.625867374
190,0.0
2,15, 1,15, 0,22, 0.00,60.00,Sunday
141,22535364.658910457
190,0.0
2,15, 1,15, 0,23, 0.00,60.00,Sunday
141,22564397.55875363
190,0.0
2,15, 1,15, 0,24, 0.00,60.00,Sunday
141,22688340.779825367
190,0.0
2,16, 1,16, 0, 1, 0.00,60.00,Monday
141,23136752.811467323
190,0.0
2,16, 1,16, 0, 2, 0.00,60.00,Monday
141,23555210.289790772
190,0.0
2,16, 1,16, 0, 3, 0.00,60.00,Monday
141,23787520.83463566
190,0.0
2,16, 1,16, 0, 4, 0.00,60.00,Monday
141,23955076.428675175
190,0.0
2,16, 1,16, 0, 5, 0.00,60.00,Monday
141,24208614.827824235
190,0.0
2,16, 1,16, 0, 6, 0.00,60.00,Monday
141,24425526.073853187
190,0.0
2,16, 1,16, 0, 7, 0.00,60.00,Monday
141,24877883.64828594
190,0.0
2,16, 1,16, 0, 8, 0.00,60.00,Monday
141,25302621.568263557
190,0.0
2,16, 1,16, 0, 9, 0.00,60.00,Monday
141,25480086.923395
190,0.0
2,16, 1,16, 0,10, 0.00,60.00,Monday
141,25476913.4347254
190,0.0
2,16, 1,16, 0,11, 0.00,60.00,Monday
141,24507345.61539406
190,0.0
2,16, 1,16, 0,12, 0.00,60.00,Monday
141,23651670.510421902
190,0.0
2,16, 1,16, 0,13, 0.00,60.00,Monday
141,22988513.623524994
190,0.0
2,16, 1,16, 0,14, 0.00,60.00,Monday
141,22552401.112135552
190,0.0
2,16, 1,16, 0,15, 0.00,60.00,Monday
141,22512855.19653817
190,0.0
2,16, 1,16, 0,16, 0.00,60.00,Monday
141,22717682.772235338
190,0.0
2,16, 1,16, 0,17, 0.00,60.00,Monday
141,23203630.6628351
190,0.0
2,16, 1,16, 0,18, 0.00,60.00,Monday
141,24122508.935320262
190,0.0
2,16, 1,16, 0,19, 0.00,60.00,Monday
141,25086232.36402365
190,0.0
2,16, 1,16, 0,20, 0.00,60.00,Monday
141,25575097.529364184
190,0.0
2,16, 1,16, 0,21, 0.00,60.00,Monday
141,25960139.146902647
190,0.0
2,16, 1,16, 0,22, 0.00,60.00,Monday
141,26308560.53158856
190,0.0
2,16, 1,16, 0,23, 0.00,60.00,Monday
141,26834459.661204256
190,0.0
2,16, 1,16, 0,24, 0.00,60.00,Monday
141,26947860.926368102
190,0.0
2,17, 1,17, 0, 1, 0.00,60.00,Tuesday
141,27100611.742744014
190,0.0
2,17, 1,17, 0, 2, 0.00,60.00,Tuesday
141,27728853.17536805
190,0.0
2,17, 1,17, 0, 3, 0.00,60.00,Tuesday
141,28247795.670990497
190,0.0
2,17, 1,17, 0, 4, 0.00,60.00,Tuesday
141,28686089.769124057
190,0.0
2,17, 1,17, 0, 5, 0.00,60.00,Tuesday
141,29175633.039770998
190,0.0
2,17, 1,17, 0, 6, 0.00,60.00,Tuesday
141,29667243.143489473
190,0.0
2,17, 1,17, 0, 7, 0.00,60.00,Tuesday
141,29952459.455285653
190,0.0
2,17, 1,17, 0, 8, 0.00,60.00,Tuesday
141,30094430.33903095
190,0.0
2,17, 1,17, 0, 9, 0.00,60.00,Tuesday
141,30105359.892092012
190,0.0
2,17, 1,17, 0,10, 0.00,60.00,Tuesday
141,28981755.91321568
190,0.0
2,17, 1,17, 0,11, 0.00,60.00,Tuesday
141,27336093.2980966
190,0.0
2,17, 1,17, 0,12, 0.00,60.00,Tuesday
141,25918588.190022122
190,0.0
2,17, 1,17, 0,13, 0.00,60.00,Tuesday
141,25095784.492795784
190,0.0
2,17, 1,17, 0,14, 0.00,60.00,Tuesday
141,24926820.48781294
190,0.0
2,17, 1,17, 0,15, 0.00,60.00,Tuesday
141,25216343.466451064
190,0.0
2,17, 1,17, 0,16, 0.00,60.00,Tuesday
141,26042158.900306616
190,0.0
2,17, 1,17, 0,17, 0.00,60.00,Tuesday
141,26711342.77280596
190,0.0
2,17, 1,17, 0,18, 0.00,60.00,Tuesday
141,26819366.01076381
190,0.0
2,17, 1,17, 0,19, 0.00,60.00,Tuesday
141,26801077.68798537
190,0.0
2,17, 1,17, 0,20, 0.00,60.00,Tuesday
141,26975323.515451893
190,0.0
2,17, 1,17, 0,21, 0.00,60.00,Tuesday
141,27243769.569043506
190,0.0
2,17, 1,17, 0,22, 0.00,60.00,Tuesday
141,27301796.06446936
190,0.0
2,17, 1,17, 0,23, 0.00,60.00,Tuesday
141,27345624.23423978
190,0.0
2,17, 1,17, 0,24, 0.00,60.00,Tuesday
141,27689260.592971124
190,0.0
2,18, 1,18, 0, 1, 0.00,60.00,Wednesday
141,27903121.106901545
190,0.0
2,18, 1,18, 0, 2, 0.00,60.00,Wednesday
141,28052197.0401759
190,0.0
2,18, 1,18, 0, 3, 0.00,60.00,Wednesday
141,28089792.335237846
190,0.0
2,18, 1,18, 0, 4, 0.00,60.00,Wednesday
141,28047948.041436207
190,0.0
2,18, 1,18, 0, 5, 0.00,60.00,Wednesday
141,28055091.49600766
190,0.0
2,18, 1,18, 0, 6, 0.00,60.00,Wednesday
141,28128696.81848727
190,0.0
2,18, 1,18, 0, 7, 0.00,60.00,Wednesday
141,28659941.73642104
190,0.0
2,18, 1,18, 0, 8, 0.00,60.00,Wednesday
141,28805761.0709297
190,0.0
2,18, 1,18, 0, 9, 0.00,60.00,Wednesday
141,28876489.069477208
190,0.0
2,18, 1,18, 0,10, 0.00,60.00,Wednesday
141,28826841.78316796
190,0.0
2,18, 1,18, 0,11, 0.00,60.00,Wednesday
141,28281177.486317582
190,0.0
2,18, 1,18, 0,12, 0.00,60.00,Wednesday
141,27863101.521791697
190,0.0
2,18, 1,18, 0,13, 0.00,60.00,Wednesday
141,28044500.27194336
190,0.0
2,18, 1,18, 0,14, 0.00,60.00,Wednesday
141,28448284.764109723
190,0.0
2,18, 1,18, 0,15, 0.00,60.00,Wednesday
141,28669864.350231975
190,0.0
2,18, 1,18, 0,16, 0.00,60.00,Wednesday
141,29141506.294501923
190,0.0
2,18, 1,18, 0,17, 0.00,60.00,Wednesday
141,29382548.501827404
190,0.0
2,18, 1,18, 0,18, 0.00,60.00,Wednesday
141,29212431.005861156
190,0.0
2,18, 1,18, 0,19, 0.00,60.00,Wednesday
141,29132698.34995479
190,0.0
2,18, 1,18, 0,20, 0.00,60.00,Wednesday
141,29219845.679188702
190,0.0
2,18, 1,18, 0,21, 0.00,60.00,Wednesday
141,29282551.93924742
190,0.0
2,18, 1,18, 0,22, 0.00,60.00,Wednesday
141,29436047.04995897
190,0.0
2,18, 1,18, 0,23, 0.00,60.00,Wednesday
141,29547908.86702162
190,0.0
2,18, 1,18, 0,24, 0.00,60.00,Wednesday
141,29696745.870145395
190,0.0
2,19, 1,19, 0, 1, 0.00,60.00,Thursday