Program Version,EnergyPlus, Version 24.2.0-94a887817b, YMD=2025.04.24 13:19
1,5,Environment Title[],Latitude[deg],Longitude[deg],Time Zone[],Elevation[m]
2,8,Day of Simulation[],Month[],Day of Month[],DST Indicator[1=yes 0=no],Hour[],StartMinute[],EndMinute[],DayType
3,5,Cumulative Day of Simulation[],Month[],Day of Month[],DST Indicator[1=yes 0=no],DayType  ! When Daily Report Variables Requested
4,2,Cumulative Days of Simulation[],Month[]  ! When Monthly Report Variables Requested
5,1,Cumulative Days of Simulation[] ! When Run Period Report Variables Requested
6,1,Calendar Year of Simulation[] ! When Annual Report Variables Requested
141,1,ZONE_0599100000062775 IDEAL LOADS AIR SYSTEM,Zone Ideal Loads Supply Air Total Heating Energy [J] !Hourly
190,1,ZONE_0599100000062775 IDEAL LOADS AIR SYSTEM,Zone Ideal Loads Supply Air Total Cooling Energy [J] !Hourly
End of Data Dictionary
1,RUN PERIOD 1,  51.96,   4.45,   1.00,  -4.50
2,1, 1, 1, 0, 1, 0.00,60.00,Sunday
141,39362322.50703589
190,0.0
2,1, 1, 1, 0, 2, 0.00,60.00,Sunday
141,40531616.59245451
190,0.0
2,1, 1, 1, 0, 3, 0.00,60.00,Sunday
141,40567016.12143424
190,0.0
2,1, 1, 1, 0, 4, 0.00,60.00,Sunday
141,41451594.34147188
190,0.0
2,1, 1, 1, 0, 5, 0.00,60.00,Sunday
141,42096436.29301686
190,0.0
2,1, 1, 1, 0, 6, 0.00,60.00,Sunday
141,42265278.4250962
190,0.0
2,1, 1, 1, 0, 7, 0.00,60.00,Sunday
141,42494049.92669024
190,0.0
2,1, 1, 1, 0, 8, 0.00,60.00,Sunday
141,42564604.86853695
190,0.0
2,1, 1, 1, 0, 9, 0.00,60.00,Sunday
141,42658026.49670673
190,0.0
2,1, 1, 1, 0,10, 0.00,60.00,Sunday
141,42559662.88123348
190,0.0
2,1, 1, 1, 0,11, 0.00,60.00,Sunday
141,42040607.457352206
190,0.0
2,1, 1, 1, 0,12, 0.00,60.00,Sunday
141,41066021.33256033
190,0.0
2,1, 1, 1, 0,13, 0.00,60.00,Sunday
141,40582958.94942058
190,0.0
2,1, 1, 1, 0,14, 0.00,60.00,Sunday
141,39776300.926880166
190,0.0
2,1, 1, 1, 0,15, 0.00,60.00,Sunday
141,39068277.19941269
190,0.0
2,1, 1, 1, 0,16, 0.00,60.00,Sunday
141,39292172.75956045
190,0.0
2,1, 1, 1, 0,17, 0.00,60.00,Sunday
141,39606323.85601666
190,0.0
2,1, 1, 1, 0,18, 0.00,60.00,Sunday
141,39505252.509066306
190,0.0
2,1, 1, 1, 0,19, 0.00,60.00,Sunday
141,39448658.66799884
190,0.0
2,1, 1, 1, 0,20, 0.00,60.00,Sunday
141,39261769.75812021
190,0.0
2,1, 1, 1, 0,21, 0.00,60.00,Sunday
141,39077374.76944824
190,0.0
2,1, 1, 1, 0,22, 0.00,60.00,Sunday
141,39127657.03457524
190,0.0
2,1, 1, 1, 0,23, 0.00,60.00,Sunday
141,38368957.88198285
190,0.0
2,1, 1, 1, 0,24, 0.00,60.00,Sunday
141,37834670.36046233
190,0.0
2,2, 1, 2, 0, 1, 0.00,60.00,Monday
141,37991608.416189305
190,0.0
2,2, 1, 2, 0, 2, 0.00,60.00,Monday
141,37257347.42855443
190,0.0
2,2, 1, 2, 0, 3, 0.00,60.00,Monday
141,36694339.19894502
190,0.0
2,2, 1, 2, 0, 4, 0.00,60.00,Monday
141,36106298.84987242
190,0.0
2,2, 1, 2, 0, 5, 0.00,60.00,Monday
141,34768593.602165736
190,0.0
2,2, 1, 2, 0, 6, 0.00,60.00,Monday
141,34101978.412608966
190,0.0
2,2, 1, 2, 0, 7, 0.00,60.00,Monday
141,33039930.196982324
190,0.0
2,2, 1, 2, 0, 8, 0.00,60.00,Monday
141,31723138.974544562
190,0.0
2,2, 1, 2, 0, 9, 0.00,60.00,Monday
141,31963530.808272082
190,0.0
2,2, 1, 2, 0,10, 0.00,60.00,Monday
141,32702691.576282088
190,0.0
2,2, 1, 2, 0,11, 0.00,60.00,Monday
141,33123084.43642519
190,0.0
2,2, 1, 2, 0,12, 0.00,60.00,Monday
141,32400798.001913562
190,0.0
2,2, 1, 2, 0,13, 0.00,60.00,Monday
141,32031897.89569174
190,0.0
2,2, 1, 2, 0,14, 0.00,60.00,Monday
141,32586121.016765557
190,0.0
2,2, 1, 2, 0,15, 0.00,60.00,Monday
141,32841439.523429994
190,0.0
2,2, 1, 2, 0,16, 0.00,60.00,Monday
141,33459072.037728895
190,0.0
2,2, 1, 2, 0,17, 0.00,60.00,Monday
141,34098704.16139459
190,0.0
2,2, 1, 2, 0,18, 0.00,60.00,Monday
141,34294882.316085465
190,0.0
2,2, 1, 2, 0,19, 0.00,60.00,Monday
141,35052565.847245306
190,0.0
2,2, 1, 2, 0,20, 0.00,60.00,Monday
141,35779246.540797435
190,0.0
2,2, 1, 2, 0,21, 0.00,60.00,Monday
141,36029981.12125453
190,0.0
2,2, 1, 2, 0,22, 0.00,60.00,Monday
141,36181993.489723384
190,0.0
2,2, 1, 2, 0,23, 0.00,60.00,Monday
141,36388673.25546029
190,0.0
2,2, 1, 2, 0,24, 0.00,60.00,Monday
141,36613117.96622362
190,0.0
2,3, 1, 3, 0, 1, 0.00,60.00,Tuesday
141,36851977.48504177
190,0.0
2,3, 1, 3, 0, 2, 0.00,60.00,Tuesday
141,37025583.562819675
190,0.0
2,3, 1, 3, 0, 3, 0.00,60.00,Tuesday
141,37162420.204187565
190,0.0
2,3, 1, 3, 0, 4, 0.00,60.00,Tuesday
141,37383189.469646566
190,0.0
2,3, 1, 3, 0, 5, 0.00,60.00,Tuesday
141,38204497.6844829
190,0.0
2,3, 1, 3, 0, 6, 0.00,60.00,Tuesday
141,38718145.819082856
190,0.0
2,3, 1, 3, 0, 7, 0.00,60.00,Tuesday
141,38948243.547401726
190,0.0
2,3, 1, 3, 0, 8, 0.00,60.00,Tuesday
141,38860110.84265315
190,0.0
2,3, 1, 3, 0, 9, 0.00,60.00,Tuesday
141,39431872.55095148
190,0.0
2,3, 1, 3, 0,10, 0.00,60.00,Tuesday
141,39684088.44123744
190,0.0
2,3, 1, 3, 0,11, 0.00,60.00,Tuesday
141,39716406.934496336
190,0.0
2,3, 1, 3, 0,12, 0.00,60.00,Tuesday
141,39863051.05031
190,0.0
2,3, 1, 3, 0,13, 0.00,60.00,Tuesday
141,40780390.252445005
190,0.0
2,3, 1, 3, 0,14, 0.00,60.00,Tuesday
141,41302727.17011369
190,0.0
2,3, 1, 3, 0,15, 0.00,60.00,Tuesday
141,41202870.029893614
190,0.0
2,3, 1, 3, 0,16, 0.00,60.00,Tuesday
141,41100606.70344236
190,0.0
2,3, 1, 3, 0,17, 0.00,60.00,Tuesday
141,41115396.93853236
190,0.0
2,3, 1, 3, 0,18, 0.00,60.00,Tuesday
141,41161062.61025003
190,0.0
2,3, 1, 3, 0,19, 0.00,60.00,Tuesday
141,40971586.57386125
190,0.0
2,3, 1, 3, 0,20, 0.00,60.00,Tuesday
141,40198246.53950667
190,0.0
2,3, 1, 3, 0,21, 0.00,60.00,Tuesday
141,38196596.70632266
190,0.0
2,3, 1, 3, 0,22, 0.00,60.00,Tuesday
141,37161158.02192395
190,0.0
2,3, 1, 3, 0,23, 0.00,60.00,Tuesday
141,37988301.894007176
190,0.0
2,3, 1, 3, 0,24, 0.00,60.00,Tuesday
141,39355825.199575245
190,0.0
2,4, 1, 4, 0, 1, 0.00,60.00,Wednesday
141,40065006.60801787
190,0.0
2,4, 1, 4, 0, 2, 0.00,60.00,Wednesday
141,40042372.60382636
190,0.0
2,4, 1, 4, 0, 3, 0.00,60.00,Wednesday
141,39960414.25827944
190,0.0
2,4, 1, 4, 0, 4, 0.00,60.00,Wednesday
141,40306462.45927237
190,0.0
2,4, 1, 4, 0, 5, 0.00,60.00,Wednesday
141,41281262.05197348
190,0.0
2,4, 1, 4, 0, 6, 0.00,60.00,Wednesday
141,41148447.880670555
190,0.0
2,4, 1, 4, 0, 7, 0.00,60.00,Wednesday
141,41172538.644729674
190,0.0
2,4, 1, 4, 0, 8, 0.00,60.00,Wednesday
141,41560890.65784029
190,0.0
2,4, 1, 4, 0, 9, 0.00,60.00,Wednesday
141,41838658.68808703
190,0.0
2,4, 1, 4, 0,10, 0.00,60.00,Wednesday
141,42063107.81871323
190,0.0
2,4, 1, 4, 0,11, 0.00,60.00,Wednesday
141,40548638.394213006
190,0.0
2,4, 1, 4, 0,12, 0.00,60.00,Wednesday
141,37993888.52674354
190,0.0
2,4, 1, 4, 0,13, 0.00,60.00,Wednesday
141,37383241.4575006
190,0.0
2,4, 1, 4, 0,14, 0.00,60.00,Wednesday
141,37360276.85588832
190,0.0
2,4, 1, 4, 0,15, 0.00,60.00,Wednesday
141,37125274.15569972
190,0.0
2,4, 1, 4, 0,16, 0.00,60.00,Wednesday
141,38171099.78449548
190,0.0
2,4, 1, 4, 0,17, 0.00,60.00,Wednesday
141,40038820.73682237
190,0.0
2,4, 1, 4, 0,18, 0.00,60.00,Wednesday
141,41637374.90843604
190,0.0
2,4, 1, 4, 0,19, 0.00,60.00,Wednesday
141,43280088.19463079
190,0.0
2,4, 1, 4, 0,20, 0.00,60.00,Wednesday
141,44155692.94660685
190,0.0
2,4, 1, 4, 0,21, 0.00,60.00,Wednesday
141,44605421.21700437
190,0.0
2,4, 1, 4, 0,22, 0.00,60.00,Wednesday
141,45545070.190236054
190,0.0
2,4, 1, 4, 0,23, 0.00,60.00,Wednesday
141,45355447.30236052
190,0.0
2,4, 1, 4, 0,24, 0.00,60.00,Wednesday
141,44965517.261371695
190,0.0
2,5, 1, 5, 0, 1, 0.00,60.00,Thursday
141,45427836.28453022
190,0.0
2,5, 1, 5, 0, 2, 0.00,60.00,Thursday
141,45250383.01664561
190,0.0
2,5, 1, 5, 0, 3, 0.00,60.00,Thursday
141,45063984.99937095
190,0.0
2,5, 1, 5, 0, 4, 0.00,60.00,Thursday
141,45326531.742557086
190,0.0
2,5, 1, 5, 0, 5, 0.00,60.00,Thursday
141,45002140.850933485
190,0.0
2,5, 1, 5, 0, 6, 0.00,60.00,Thursday
141,44899371.349918805
190,0.0
2,5, 1, 5, 0, 7, 0.00,60.00,Thursday
141,45255971.72975688
190,0.0
2,5, 1, 5, 0, 8, 0.00,60.00,Thursday
141,45537211.92756855
190,0.0
2,5, 1, 5, 0, 9, 0.00,60.00,Thursday
141,45613395.38840881
190,0.0
2,5, 1, 5, 0,10, 0.00,60.00,Thursday
141,46076829.153808564
190,0.0
2,5, 1, 5, 0,11, 0.00,60.00,Thursday
141,45881734.01604481
190,0.0
2,5, 1, 5, 0,12, 0.00,60.00,Thursday
141,44664620.40930175
190,0.0
2,5, 1, 5, 0,13, 0.00,60.00,Thursday
141,44117903.724396534
190,0.0
2,5, 1, 5, 0,14, 0.00,60.00,Thursday
141,43073306.089806005
190,0.0
2,5, 1, 5, 0,15, 0.00,60.00,Thursday
141,42114915.62830363
190,0.0
2,5, 1, 5, 0,16, 0.00,60.00,Thursday
141,42270090.79969747
190,0.0
2,5, 1, 5, 0,17, 0.00,60.00,Thursday
141,41753606.988688
190,0.0
2,5, 1, 5, 0,18, 0.00,60.00,Thursday
141,41043600.06550349
190,0.0
2,5, 1, 5, 0,19, 0.00,60.00,Thursday
141,40928436.62194054
190,0.0
2,5, 1, 5, 0,20, 0.00,60.00,Thursday
141,40633623.92801058
190,0.0
2,5, 1, 5, 0,21, 0.00,60.00,Thursday
141,40308000.96213043
190,0.0
2,5, 1, 5, 0,22, 0.00,60.00,Thursday
141,40167093.76215794
190,0.0
2,5, 1, 5, 0,23, 0.00,60.00,Thursday
141,40207002.081800126
190,0.0
2,5, 1, 5, 0,24, 0.00,60.00,Thursday
141,40287216.33134497
190,0.0
2,6, 1, 6, 0, 1, 0.00,60.00,Friday
141,40321771.41940415
190,0.0
2,6, 1, 6, 0, 2, 0.00,60.00,Friday
141,40362227.093084395
190,0.0
2,6, 1, 6, 0, 3, 0.00,60.00,Friday
141,41044690.153209485
190,0.0
2,6, 1, 6, 0, 4, 0.00,60.00,Friday
141,41713327.45422229
190,0.0
2,6, 1, 6, 0, 5, 0.00,60.00,Friday
141,42047994.62869182
190,0.0
2,6, 1, 6, 0, 6, 0.00,60.00,Friday
141,42483262.34564769
190,0.0
2,6, 1, 6, 0, 7, 0.00,60.00,Friday
141,43162132.54072651
190,0.0
2,6, 1, 6, 0, 8, 0.00,60.00,Friday
141,43830595.126720905
190,0.0
2,6, 1, 6, 0, 9, 0.00,60.00,Friday
141,44660847.55742689
190,0.0
2,6, 1, 6, 0,10, 0.00,60.00,Friday
141,45208925.45196401
190,0.0
2,6, 1, 6, 0,11, 0.00,60.00,Friday
141,44811915.67221378
190,0.0
2,6, 1, 6, 0,12, 0.00,60.00,Friday
141,44136463.46286942
190,0.0
2,6, 1, 6, 0,13, 0.00,60.00,Friday
141,43854530.667451605
190,0.0
2,6, 1, 6, 0,14, 0.00,60.00,Friday
141,43727321.44363555
190,0.0
2,6, 1, 6, 0,15, 0.00,60.00,Friday
141,43445397.12914029
190,0.0
2,6, 1, 6, 0,16, 0.00,60.00,Friday
141,42796340.61249525
190,0.0
2,6, 1, 6, 0,17, 0.00,60.00,Friday
141,42098495.26773227
190,0.0
2,6, 1, 6, 0,18, 0.00,60.00,Friday
141,41695976.32986084
190,0.0
2,6, 1, 6, 0,19, 0.00,60.00,Friday
141,41305333.59140159
190,0.0
2,6, 1, 6, 0,20, 0.00,60.00,Friday
141,40572222.24944907
190,0.0
2,6, 1, 6, 0,21, 0.00,60.00,Friday
141,38858753.08333376
190,0.0
2,6, 1, 6, 0,22, 0.00,60.00,Friday
141,36844607.71415407
190,0.0
2,6, 1, 6, 0,23, 0.00,60.00,Friday
141,36006404.23111476
190,0.0
2,6, 1, 6, 0,24, 0.00,60.00,Friday
141,36296117.94317477
190,0.0
2,7, 1, 7, 0, 1, 0.00,60.00,Saturday
141,38022264.566156164
190,0.0
2,7, 1, 7, 0, 2, 0.00,60.00,Saturday
141,39709968.05672118
190,0.0
2,7, 1, 7, 0, 3, 0.00,60.00,Saturday
141,39459584.63518983
190,0.0
2,7, 1, 7, 0, 4, 0.00,60.00,Saturday
141,39586742.38318127
190,0.0
2,7, 1, 7, 0, 5, 0.00,60.00,Saturday
141,40740177.00625687
190,0.0
2,7, 1, 7, 0, 6, 0.00,60.00,Saturday
141,41653536.45543714
190,0.0
2,7, 1, 7, 0, 7, 0.00,60.00,Saturday
141,42205541.04859155
190,0.0
2,7, 1, 7, 0, 8, 0.00,60.00,Saturday
141,42507251.94081276
190,0.0
2,7, 1, 7, 0, 9, 0.00,60.00,Saturday
141,41927757.15781415
190,0.0
2,7, 1, 7, 0,10, 0.00,60.00,Saturday
141,41440853.852786675
190,0.0
2,7, 1, 7, 0,11, 0.00,60.00,Saturday
141,39853025.64488598
190,0.0
2,7, 1, 7, 0,12, 0.00,60.00,Saturday
141,38222608.38074073
190,0.0
2,7, 1, 7, 0,13, 0.00,60.00,Saturday
141,36952297.95298506
190,0.0
2,7, 1, 7, 0,14, 0.00,60.00,Saturday
141,36133185.85459486
190,0.0
2,7, 1, 7, 0,15, 0.00,60.00,Saturday
141,36047252.83200908
190,0.0
2,7, 1, 7, 0,16, 0.00,60.00,Saturday
141,36141189.652294375
190,0.0
2,7, 1, 7, 0,17, 0.00,60.00,Saturday
141,36100317.007098265
190,0.0
2,7, 1, 7, 0,18, 0.00,60.00,Saturday
141,36456008.55795643
190,0.0
2,7, 1, 7, 0,19, 0.00,60.00,Saturday
141,36858617.55487965
190,0.0
2,7, 1, 7, 0,20, 0.00,60.00,Saturday
141,37354025.99820578
190,0.0
2,7, 1, 7, 0,21, 0.00,60.00,Saturday
141,37747399.85396353
190,0.0
2,7, 1, 7, 0,22, 0.00,60.00,Saturday
141,37720439.57447669
190,0.0
2,7, 1, 7, 0,23, 0.00,60.00,Saturday
141,37842425.74028045
190,0.0
2,7, 1, 7, 0,24, 0.00,60.00,Saturday
141,37890229.76005149
190,0.0
2,8, 1, 8, 0, 1, 0.00,60.00,Sunday
141,37564319.10667654
190,0.0
2,8, 1, 8, 0, 2, 0.00,60.00,Sunday
141,37221611.18895529
190,0.0
2,8, 1, 8, 0, 3, 0.00,60.00,Sunday
141,36971681.96285001
190,0.0
2,8, 1, 8, 0, 4, 0.00,60.00,Sunday
141,36492978.28470146
190,0.0
2,8, 1, 8, 0, 5, 0.00,60.00,Sunday
141,35813798.48841127
190,0.0
2,8, 1, 8, 0, 6, 0.00,60.00,Sunday
141,35307095.57389901
190,0.0
2,8, 1, 8, 0, 7, 0.00,60.00,Sunday
141,34898667.84792441
190,0.0
2,8, 1, 8, 0, 8, 0.00,60.00,Sunday
141,34502585.27107236
190,0.0
2,8, 1, 8, 0, 9, 0.00,60.00,Sunday
141,34028510.64952453
190,0.0
2,8, 1, 8, 0,10, 0.00,60.00,Sunday
141,33831385.94943576
190,0.0
2,8, 1, 8, 0,11, 0.00,60.00,Sunday
141,33631286.07288788
190,0.0
2,8, 1, 8, 0,12, 0.00,60.00,Sunday
141,33614603.223720364
190,0.0
2,8, 1, 8, 0,13, 0.00,60.00,Sunday
141,33389077.166315384
190,0.0
2,8, 1, 8, 0,14, 0.00,60.00,Sunday
141,33356086.98319214
190,0.0
2,8, 1, 8, 0,15, 0.00,60.00,Sunday
141,34259912.62691265
190,0.0
2,8, 1, 8, 0,16, 0.00,60.00,Sunday
141,34895332.7396635
190,0.0
2,8, 1, 8, 0,17, 0.00,60.00,Sunday
141,34849724.74078368
190,0.0
2,8, 1, 8, 0,18, 0.00,60.00,Sunday
141,35143677.20505213
190,0.0
2,8, 1, 8, 0,19, 0.00,60.00,Sunday
141,34973643.67087277
190,0.0
2,8, 1, 8, 0,20, 0.00,60.00,Sunday
141,34386037.9077134
190,0.0
2,8, 1, 8, 0,21, 0.00,60.00,Sunday
141,33991131.6364058
190,0.0
2,8, 1, 8, 0,22, 0.00,60.00,Sunday
141,34190201.71768919
190,0.0
2,8, 1, 8, 0,23, 0.00,60.00,Sunday
141,34386062.46746103
190,0.0
2,8, 1, 8, 0,24, 0.00,60.00,Sunday
141,34831854.584704034
190,0.0
2,9, 1, 9, 0, 1, 0.00,60.00,Monday
141,34974633.30809942
190,0.0
2,9, 1, 9, 0, 2, 0.00,60.00,Monday
141,35091421.162961535
190,0.0
2,9, 1, 9, 0, 3, 0.00,60.00,Monday
141,35079807.14173856
190,0.0
2,9, 1, 9, 0, 4, 0.00,60.00,Monday
141,34928894.117814556
190,0.0
2,9, 1, 9, 0, 5, 0.00,60.00,Monday
141,34480698.83203047
190,0.0
2,9, 1, 9, 0, 6, 0.00,60.00,Monday
141,34004027.85654028
190,0.0
2,9, 1, 9, 0, 7, 0.00,60.00,Monday
141,33646626.50267643
190,0.0
2,9, 1, 9, 0, 8, 0.00,60.00,Monday
141,33432143.547907475
190,0.0
2,9, 1, 9, 0, 9, 0.00,60.00,Monday
141,32835746.110673618
190,0.0
2,9, 1, 9, 0,10, 0.00,60.00,Monday
141,31420601.92551783
190,0.0
2,9, 1, 9, 0,11, 0.00,60.00,Monday
141,30201732.72246029
190,0.0
2,9, 1, 9, 0,12, 0.00,60.00,Monday
141,29489958.867303938
190,0.0
2,9, 1, 9, 0,13, 0.00,60.00,Monday
141,28860683.88812168
190,0.0
2,9, 1, 9, 0,14, 0.00,60.00,Monday
141,28336767.546299092
190,0.0
2,9, 1, 9, 0,15, 0.00,60.00,Monday
141,28035983.916913435
190,0.0
2,9, 1, 9, 0,16, 0.00,60.00,Monday
141,28130445.3987965
190,0.0
2,9, 1, 9, 0,17, 0.00,60.00,Monday
141,28884316.2022843
190,0.0
2,9, 1, 9, 0,18, 0.00,60.00,Monday
141,29609747.24077081
190,0.0
2,9, 1, 9, 0,19, 0.00,60.00,Monday
141,29423266.38410391
190,0.0
2,9, 1, 9, 0,20, 0.00,60.00,Monday
141,28113808.35802549
190,0.0
2,9, 1, 9, 0,21, 0.00,60.00,Monday
141,26799990.2491572
190,0.0
2,9, 1, 9, 0,22, 0.00,60.00,Monday
141,25950684.709882014
190,0.0
2,9, 1, 9, 0,23, 0.00,60.00,Monday
141,25684418.211121943
190,0.0
2,9, 1, 9, 0,24, 0.00,60.00,Monday
141,25597526.889203683
190,0.0
2,10, 1,10, 0, 1, 0.00,60.00,Tuesday
141,25737272.53753934
190,0.0
2,10, 1,10, 0, 2, 0.00,60.00,Tuesday
141,25750874.449293748
190,0.0
2,10, 1,10, 0, 3, 0.00,60.00,Tuesday
141,25571743.43598115
190,0.0
2,10, 1,10, 0, 4, 0.00,60.00,Tuesday
141,25736562.5150803
190,0.0
2,10, 1,10, 0, 5, 0.00,60.00,Tuesday
141,25674809.738665164
190,0.0
2,10, 1,10, 0, 6, 0.00,60.00,Tuesday
141,25538433.5291996
190,0.0
2,10, 1,10, 0, 7, 0.00,60.00,Tuesday
141,25435090.388295997
190,0.0
2,10, 1,10, 0, 8, 0.00,60.00,Tuesday
141,25173627.828273192
190,0.0
2,10, 1,10, 0, 9, 0.00,60.00,Tuesday
141,24875779.623935513
190,0.0
2,10, 1,10, 0,10, 0.00,60.00,Tuesday
141,24526965.063044023
190,0.0
2,10, 1,10, 0,11, 0.00,60.00,Tuesday
141,24072484.81122361
190,0.0
2,10, 1,10, 0,12, 0.00,60.00,Tuesday
141,23570900.500761084
190,0.0
2,10, 1,10, 0,13, 0.00,60.00,Tuesday
141,23434523.512607764
190,0.0
2,10, 1,10, 0,14, 0.00,60.00,Tuesday
141,24963522.615523987
190,0.0
2,10, 1,10, 0,15, 0.00,60.00,Tuesday
141,26206688.595335245
190,0.0
2,10, 1,10, 0,16, 0.00,60.00,Tuesday
141,26994555.45489511
190,0.0
2,10, 1,10, 0,17, 0.00,60.00,Tuesday
141,27864157.679108694
190,0.0
2,10, 1,10, 0,18, 0.00,60.00,Tuesday
141,29038649.403227672
190,0.0
2,10, 1,10, 0,19, 0.00,60.00,Tuesday
141,29798302.040615797
190,0.0
2,10, 1,10, 0,20, 0.00,60.00,Tuesday
141,30516974.32555428
190,0.0
2,10, 1,10, 0,21, 0.00,60.00,Tuesday
141,31576972.354349434
190,0.0
2,10, 1,10, 0,22, 0.00,60.00,Tuesday
141,32421718.952591345
190,0.0
2,10, 1,10, 0,23, 0.00,60.00,Tuesday
141,32694585.823215082
190,0.0
2,10, 1,10, 0,24, 0.00,60.00,Tuesday
141,33667684.194786526
190,0.0
2,11, 1,11, 0, 1, 0.00,60.00,Wednesday
141,34284120.2915813
190,0.0
2,11, 1,11, 0, 2, 0.00,60.00,Wednesday
141,34891304.73259526
190,0.0
2,11, 1,11, 0, 3, 0.00,60.00,Wednesday
141,35641340.138125986
190,0.0
2,11, 1,11, 0, 4, 0.00,60.00,Wednesday
141,35756698.98254293
190,0.0
2,11, 1,11, 0, 5, 0.00,60.00,Wednesday
141,35889373.23496669
190,0.0
2,11, 1,11, 0, 6, 0.00,60.00,Wednesday
141,36095743.0971888
190,0.0
2,11, 1,11, 0, 7, 0.00,60.00,Wednesday
141,36418997.44681803
190,0.0
2,11, 1,11, 0, 8, 0.00,60.00,Wednesday
141,36706126.78574661
190,0.0
2,11, 1,11, 0, 9, 0.00,60.00,Wednesday
141,36774108.1489757
190,0.0
2,11, 1,11, 0,10, 0.00,60.00,Wednesday
141,36690087.89646819
190,0.0
2,11, 1,11, 0,11, 0.00,60.00,Wednesday
141,36447342.6564313
190,0.0
2,11, 1,11, 0,12, 0.00,60.00,Wednesday
141,35948466.11853327
190,0.0
2,11, 1,11, 0,13, 0.00,60.00,Wednesday
141,35477538.64839042
190,0.0
2,11, 1,11, 0,14, 0.00,60.00,Wednesday
141,35125360.06563799
190,0.0
2,11, 1,11, 0,15, 0.00,60.00,Wednesday
141,34790689.376617715
190,0.0
2,11, 1,11, 0,16, 0.00,60.00,Wednesday
141,34435465.88942094
190,0.0
2,11, 1,11, 0,17, 0.00,60.00,Wednesday
141,33751971.852958366
190,0.0
2,11, 1,11, 0,18, 0.00,60.00,Wednesday
141,33111193.97852245
190,0.0
2,11, 1,11, 0,19, 0.00,60.00,Wednesday
141,32626685.312197067
190,0.0
2,11, 1,11, 0,20, 0.00,60.00,Wednesday
141,32394916.914543208
190,0.0
2,11, 1,11, 0,21, 0.00,60.00,Wednesday
141,32248805.265474744
190,0.0
2,11, 1,11, 0,22, 0.00,60.00,Wednesday
141,31591074.00585247
190,0.0
2,11, 1,11, 0,23, 0.00,60.00,Wednesday
141,31098744.47074862
190,0.0
2,11, 1,11, 0,24, 0.00,60.00,Wednesday
141,31101266.590791482
190,0.0
2,12, 1,12, 0, 1, 0.00,60.00,Thursday
141,31287585.53211752
190,0.0
2,12, 1,12, 0, 2, 0.00,60.00,Thursday
141,31291364.740720578
190,0.0
2,12, 1,12, 0, 3, 0.00,60.00,Thursday
141,31133694.90075173
190,0.0
2,12, 1,12, 0, 4, 0.00,60.00,Thursday
141,31135334.10833951
190,0.0
2,12, 1,12, 0, 5, 0.00,60.00,Thursday
141,31323848.954150423
190,0.0
2,12, 1,12, 0, 6, 0.00,60.00,Thursday
141,31788278.897377312
190,0.0
2,12, 1,12, 0, 7, 0.00,60.00,Thursday
141,32036871.18782448
190,0.0
2,12, 1,12, 0, 8, 0.00,60.00,Thursday
141,32094334.1221093
190,0.0
2,12, 1,12, 0, 9, 0.00,60.00,Thursday
141,31759350.772292186
190,0.0
2,12, 1,12, 0,10, 0.00,60.00,Thursday
141,31035875.683230672
190,0.0
2,12, 1,12, 0,11, 0.00,60.00,Thursday
141,30484792.748522885
190,0.0
2,12, 1,12, 0,12, 0.00,60.00,Thursday
141,30172670.484953143
190,0.0
2,12, 1,12, 0,13, 0.00,60.00,Thursday
141,29778799.640903115
190,0.0
2,12, 1,12, 0,14, 0.00,60.00,Thursday
141,29370828.626245227
190,0.0
2,12, 1,12, 0,15, 0.00,60.00,Thursday
141,29400861.780189857
190,0.0
2,12, 1,12, 0,16, 0.00,60.00,Thursday
141,29623247.267105855
190,0.0
2,12, 1,12, 0,17, 0.00,60.00,Thursday
141,30529333.155739598
190,0.0
2,12, 1,12, 0,18, 0.00,60.00,Thursday
141,31062319.809556372
190,0.0
2,12, 1,12, 0,19, 0.00,60.00,Thursday
141,30872291.610286936
190,0.0
2,12, 1,12, 0,20, 0.00,60.00,Thursday
141,30402120.64075945
190,0.0
2,12, 1,12, 0,21, 0.00,60.00,Thursday
141,30210443.43512813
190,0.0
2,12, 1,12, 0,22, 0.00,60.00,Thursday
141,29869116.162613012
190,0.0
2,12, 1,12, 0,23, 0.00,60.00,Thursday
141,29702745.727388166
190,0.0
2,12, 1,12, 0,24, 0.00,60.00,Thursday
141,29655021.0865918
190,0.0
2,13, 1,13, 0, 1, 0.00,60.00,Friday
141,29347570.186684266
190,0.0
2,13, 1,13, 0, 2, 0.00,60.00,Friday
141,29041957.707705036
190,0.0
2,13, 1,13, 0, 3, 0.00,60.00,Friday
141,28630098.79569509
190,0.0
2,13, 1,13, 0, 4, 0.00,60.00,Friday
141,28326485.428949222
190,0.0
2,13, 1,13, 0, 5, 0.00,60.00,Friday
141,28179507.7004259
190,0.0
2,13, 1,13, 0, 6, 0.00,60.00,Friday
141,28107393.977549158
190,0.0
2,13, 1,13, 0, 7, 0.00,60.00,Friday
141,28171764.642473087
190,0.0
2,13, 1,13, 0, 8, 0.00,60.00,Friday
141,28081428.583731566
190,0.0
2,13, 1,13, 0, 9, 0.00,60.00,Friday
141,27770342.005355038
190,0.0
2,13, 1,13, 0,10, 0.00,60.00,Friday
141,28231777.1884821
190,0.0
2,13, 1,13, 0,11, 0.00,60.00,Friday
141,28778880.257073887
190,0.0
2,13, 1,13, 0,12, 0.00,60.00,Friday
141,28781294.195515156
190,0.0
2,13, 1,13, 0,13, 0.00,60.00,Friday
141,28844960.18468653
190,0.0
2,13, 1,13, 0,14, 0.00,60.00,Friday
141,29238512.421442553
190,0.0
2,13, 1,13, 0,15, 0.00,60.00,Friday
141,29484819.5516477
190,0.0
2,13, 1,13, 0,16, 0.00,60.00,Friday
141,29469240.191832826
190,0.0
2,13, 1,13, 0,17, 0.00,60.00,Friday
141,29400121.96949213
190,0.0
2,13, 1,13, 0,18, 0.00,60.00,Friday
141,29374615.913428567
190,0.0
2,13, 1,13, 0,19, 0.00,60.00,Friday
141,29745310.625577856
190,0.0
2,13, 1,13, 0,20, 0.00,60.00,Friday
141,30388013.70906956
190,0.0
2,13, 1,13, 0,21, 0.00,60.00,Friday
141,30988647.62396516
190,0.0
2,13, 1,13, 0,22, 0.00,60.00,Friday
141,31442827.941311
190,0.0
2,13, 1,13, 0,23, 0.00,60.00,Friday
141,31478572.67481743
190,0.0
2,13, 1,13, 0,24, 0.00,60.00,Friday
141,33175477.266370226
190,0.0
2,14, 1,14, 0, 1, 0.00,60.00,Saturday
141,34431498.61488631
190,0.0
2,14, 1,14, 0, 2, 0.00,60.00,Saturday
141,34235131.509822205
190,0.0
2,14, 1,14, 0, 3, 0.00,60.00,Saturday
141,34524382.01744623
190,0.0
2,14, 1,14, 0, 4, 0.00,60.00,Saturday
141,34542189.25751973
190,0.0
2,14, 1,14, 0, 5, 0.00,60.00,Saturday
141,34653191.82371917
190,0.0
2,14, 1,14, 0, 6, 0.00,60.00,Saturday
141,35887975.90460373
190,0.0
2,14, 1,14, 0, 7, 0.00,60.00,Saturday
141,36885590.578610234
190,0.0
2,14, 1,14, 0, 8, 0.00,60.00,Saturday
141,36850088.62022877
190,0.0
2,14, 1,14, 0, 9, 0.00,60.00,Saturday
141,37549878.74215455
190,0.0
2,14, 1,14, 0,10, 0.00,60.00,Saturday
141,38422293.85541141
190,0.0
2,14, 1,14, 0,11, 0.00,60.00,Saturday
141,38459898.26796336
190,0.0
2,14, 1,14, 0,12, 0.00,60.00,Saturday
141,38334226.05595416
190,0.0
2,14, 1,14, 0,13, 0.00,60.00,Saturday
141,37877904.353545144
190,0.0
2,14, 1,14, 0,14, 0.00,60.00,Saturday
141,36701409.713755004
190,0.0
2,14, 1,14, 0,15, 0.00,60.00,Saturday
141,36543292.009498954
190,0.0
2,14, 1,14, 0,16, 0.00,60.00,Saturday
141,36742596.5346808
190,0.0
2,14, 1,14, 0,17, 0.00,60.00,Saturday
141,37121194.095913716
190,0.0
2,14, 1,14, 0,18, 0.00,60.00,Saturday
141,37990552.469499014
190,0.0
2,14, 1,14, 0,19, 0.00,60.00,Saturday
141,38046825.61195588
190,0.0
2,14, 1,14, 0,20, 0.00,60.00,Saturday
141,38308451.794109374
190,0.0
2,14, 1,14, 0,21, 0.00,60.00,Saturday
141,38337377.223935016
190,0.0
2,14, 1,14, 0,22, 0.00,60.00,Saturday
141,38257110.35051881
190,0.0
2,14, 1,14, 0,23, 0.00,60.00,Saturday
141,38281573.14107416
190,0.0
2,14, 1,14, 0,24, 0.00,60.00,Saturday
141,38433450.86219131
190,0.0
2,15, 1,15, 0, 1, 0.00,60.00,Sunday
141,38089272.87450803
190,0.0
2,15, 1,15, 0, 2, 0.00,60.00,Sunday
141,36926985.42749379
190,0.0
2,15, 1,15, 0, 3, 0.00,60.00,Sunday
141,36403686.92531238
190,0.0
2,15, 1,15, 0, 4, 0.00,60.00,Sunday
141,36007175.3511401
190,0.0
2,15, 1,15, 0, 5, 0.00,60.00,Sunday
141,35146082.70508424
190,0.0
2,15, 1,15, 0, 6, 0.00,60.00,Sunday
141,34167827.34773626
190,0.0
2,15, 1,15, 0, 7, 0.00,60.00,Sunday
141,33138928.405369688
190,0.0
2,15, 1,15, 0, 8, 0.00,60.00,Sunday
141,32358261.4785488
190,0.0
2,15, 1,15, 0, 9, 0.00,60.00,Sunday
141,31674682.144742414
190,0.0
2,15, 1,15, 0,10, 0.00,60.00,Sunday
141,31336136.849648666
190,0.0
2,15, 1,15, 0,11, 0.00,60.00,Sunday
141,31502578.30294875
190,0.0
2,15, 1,15, 0,12, 0.00,60.00,Sunday
141,32392993.464898705
190,0.0
2,15, 1,15, 0,13, 0.00,60.00,Sunday
141,32961218.875321705
190,0.0
2,15, 1,15, 0,14, 0.00,60.00,Sunday
141,33037283.055461377
190,0.0
2,15, 1,15, 0,15, 0.00,60.00,Sunday
141,32955457.506306153
190,0.0
2,15, 1,15, 0,16, 0.00,60.00,Sunday
141,32498578.40113648
190,0.0
2,15, 1,15, 0,17, 0.00,60.00,Sunday
141,32193484.377667446
190,0.0
2,15, 1,15, 0,18, 0.00,60.00,Sunday
141,32202320.211732514
190,0.0
2,15, 1,15, 0,19, 0.00,60.00,Sunday
141,32339220.363433246
190,0.0
2,15, 1,15, 0,20, 0.00,60.00,Sunday
141,32534494.65287327
190,0.0
2,15, 1,15, 0,21, 0.00,60.00,Sunday
141,33052717.62881289
190,0.0
2,15, 1,15, 0,22, 0.00,60.00,Sunday
141,33304160.536159687
190,0.0
2,15, 1,15, 0,23, 0.00,60.00,Sunday
141,33381518.838100806
190,0.0
2,15, 1,15, 0,24, 0.00,60.00,Sunday
141,33611934.16370373
190,0.0
2,16, 1,16, 0, 1, 0.00,60.00,Monday
141,34249372.87079936
190,0.0
2,16, 1,16, 0, 2, 0.00,60.00,Monday
141,34878430.523564205
190,0.0
2,16, 1,16, 0, 3, 0.00,60.00,Monday
141,35305971.69736447
190,0.0
2,16, 1,16, 0, 4, 0.00,60.00,Monday
141,35644844.077915326
190,0.0
2,16, 1,16, 0, 5, 0.00,60.00,Monday
141,36052022.54366731
190,0.0
2,16, 1,16, 0, 6, 0.00,60.00,Monday
141,36391256.05324315
190,0.0
2,16, 1,16, 0, 7, 0.00,60.00,Monday
141,36982497.93125529
190,0.0
2,16, 1,16, 0, 8, 0.00,60.00,Monday
141,37532874.27230007
190,0.0
2,16, 1,16, 0, 9, 0.00,60.00,Monday
141,37797833.8439507
190,0.0
2,16, 1,16, 0,10, 0.00,60.00,Monday
141,37859125.575893074
190,0.0
2,16, 1,16, 0,11, 0.00,60.00,Monday
141,36818174.34208744
190,0.0
2,16, 1,16, 0,12, 0.00,60.00,Monday
141,35877394.02352783
190,0.0
2,16, 1,16, 0,13, 0.00,60.00,Monday
141,35072558.14080994
190,0.0
2,16, 1,16, 0,14, 0.00,60.00,Monday
141,34447511.82103092
190,0.0
2,16, 1,16, 0,15, 0.00,60.00,Monday
141,34283396.82388897
190,0.0
2,16, 1,16, 0,16, 0.00,60.00,Monday
141,34454198.068619385
190,0.0
2,16, 1,16, 0,17, 0.00,60.00,Monday
141,34996958.64567118
190,0.0
2,16, 1,16, 0,18, 0.00,60.00,Monday
141,36060237.05177816
190,0.0
2,16, 1,16, 0,19, 0.00,60.00,Monday
141,37167330.52050805
190,0.0
2,16, 1,16, 0,20, 0.00,60.00,Monday
141,37717651.14784955
190,0.0
2,16, 1,16, 0,21, 0.00,60.00,Monday
141,38144777.54346365
190,0.0
2,16, 1,16, 0,22, 0.00,60.00,Monday
141,38531860.56516946
190,0.0
2,16, 1,16, 0,23, 0.00,60.00,Monday
141,39122482.81324033
190,0.0
2,16, 1,16, 0,24, 0.00,60.00,Monday
141,39244963.159724444
190,0.0
2,17, 1,17, 0, 1, 0.00,60.00,Tuesday
141,39444186.62954699
190,0.0
2,17, 1,17, 0, 2, 0.00,60.00,Tuesday
141,40259210.55568788
190,0.0
2,17, 1,17, 0, 3, 0.00,60.00,Tuesday
141,41018688.86120759
190,0.0
2,17, 1,17, 0, 4, 0.00,60.00,Tuesday
141,41717757.88294491
190,0.0
2,17, 1,17, 0, 5, 0.00,60.00,Tuesday
141,42478764.184728816
190,0.0
2,17, 1,17, 0, 6, 0.00,60.00,Tuesday
141,43237039.74510182
190,0.0
2,17, 1,17, 0, 7, 0.00,60.00,Tuesday
141,43755929.07451721
190,0.0
2,17, 1,17, 0, 8, 0.00,60.00,Tuesday
141,44111129.78648389
190,0.0
2,17, 1,17, 0, 9, 0.00,60.00,Tuesday
141,44318866.36485689
190,0.0
2,17, 1,17, 0,10, 0.00,60.00,Tuesday
141,43232343.54486016
190,0.0
2,17, 1,17, 0,11, 0.00,60.00,Tuesday
141,41542044.258629024
190,0.0
2,17, 1,17, 0,12, 0.00,60.00,Tuesday
141,40055572.5421876
190,0.0
2,17, 1,17, 0,13, 0.00,60.00,Tuesday
141,39107836.81500009
190,0.0
2,17, 1,17, 0,14, 0.00,60.00,Tuesday
141,38703398.5446008
190,0.0
2,17, 1,17, 0,15, 0.00,60.00,Tuesday
141,38613750.97827748
190,0.0
2,17, 1,17, 0,16, 0.00,60.00,Tuesday
141,38983673.775269195
190,0.0
2,17, 1,17, 0,17, 0.00,60.00,Tuesday
141,39118190.03608117
190,0.0
2,17, 1,17, 0,18, 0.00,60.00,Tuesday
141,38652395.35907305
190,0.0
2,17, 1,17, 0,19, 0.00,60.00,Tuesday
141,38157985.62801599
190,0.0
2,17, 1,17, 0,20, 0.00,60.00,Tuesday
141,38030576.482745014
190,0.0
2,17, 1,17, 0,21, 0.00,60.00,Tuesday
141,38148670.00005252
190,0.0
2,17, 1,17, 0,22, 0.00,60.00,Tuesday
141,38135462.37333776
190,0.0
2,17, 1,17, 0,23, 0.00,60.00,Tuesday
141,38187672.25242145
190,0.0
2,17, 1,17, 0,24, 0.00,60.00,Tuesday
141,38642047.02086153
190,0.0
2,18, 1,18, 0, 1, 0.00,60.00,Wednesday
141,39007339.28314405
190,0.0
2,18, 1,18, 0, 2, 0.00,60.00,Wednesday
141,39376253.460947335
190,0.0
2,18, 1,18, 0, 3, 0.00,60.00,Wednesday
141,39685190.10602427
190,0.0
2,18, 1,18, 0, 4, 0.00,60.00,Wednesday
141,39924000.250682905
190,0.0
2,18, 1,18, 0, 5, 0.00,60.00,Wednesday
141,40200123.47249994
190,0.0
2,18, 1,18, 0, 6, 0.00,60.00,Wednesday
141,40517786.573901474
190,0.0
2,18, 1,18, 0, 7, 0.00,60.00,Wednesday
141,41321522.4103041
190,0.0
2,18, 1,18, 0, 8, 0.00,60.00,Wednesday
141,41651503.964664206
190,0.0
2,18, 1,18, 0, 9, 0.00,60.00,Wednesday
141,41866620.10981477
190,0.0
2,18, 1,18, 0,10, 0.00,60.00,Wednesday
141,41922842.782405004
190,0.0
2,18, 1,18, 0,11, 0.00,60.00,Wednesday
141,41392774.6785215
190,0.0
2,18, 1,18, 0,12, 0.00,60.00,Wednesday
141,40983319.07501274
190,0.0
2,18, 1,18, 0,13, 0.00,60.00,Wednesday
141,41222488.796692036
190,0.0
2,18, 1,18, 0,14, 0.00,60.00,Wednesday
141,41671479.34524437
190,0.0
2,18, 1,18, 0,15, 0.00,60.00,Wednesday
141,41871099.62056052
190,0.0
2,18, 1,18, 0,16, 0.00,60.00,Wednesday
141,42330038.05440683
190,0.0
2,18, 1,18, 0,17, 0.00,60.00,Wednesday
141,42519227.57709082
190,0.0
2,18, 1,18, 0,18, 0.00,60.00,Wednesday
141,42252940.75583198
190,0.0
2,18, 1,18, 0,19, 0.00,60.00,Wednesday
141,42122660.26257631
190,0.0
2,18, 1,18, 0,20, 0.00,60.00,Wednesday
141,42212158.468251
190,0.0
2,18, 1,18, 0,21, 0.00,60.00,Wednesday
141,42288856.74795546
190,0.0
2,18, 1,18, 0,22, 0.00,60.00,Wednesday
141,42472642.41763929
190,0.0
2,18, 1,18, 0,23, 0.00,60.00,Wednesday
141,42606358.96678774
190,0.0
2,18, 1,18, 0,24, 0.00,60.00,Wednesday
141,42777708.24930383
190,0.0
2,19, 1,19, 0, 1, 0.00,60.00,Thursday
141,42584174.74474633
190,0.0
2,19, 1,19, 0, 2, 0.00,60.00,Thursday
141,42678026.96412891
190,0.0