Program Version,EnergyPlus, Version 24.2.0-94a887817b, YMD=2025.04.24 13:22
1,5,Environment Title[],Latitude[deg],Longitude[deg],Time Zone[],Elevation[m]
2,8,Day of Simulation[],Month[],Day of Month[],DST Indicator[1=yes 0=no],Hour[],StartMinute[],EndMinute[],DayType
3,5,Cumulative Day of Simulation[],Month[],Day of Month[],DST Indicator[1=yes 0=no],DayType  ! When Daily Report Variables Requested
4,2,Cumulative Days of Simulation[],Month[]  ! When Monthly Report Variables Requested
5,1,Cumulative Days of Simulation[] ! When Run Period Report Variables Requested
6,1,Calendar Year of Simulation[] ! When Annual Report Variables Requested
141,1,ZONE_0599100100014070 IDEAL LOADS AIR SYSTEM,Zone Ideal Loads Supply Air Total Heating Energy [J] !Hourly
190,1,ZONE_0599100100014070 IDEAL LOADS AIR SYSTEM,Zone Ideal Loads Supply Air Total Cooling Energy [J] !Hourly
End of Data Dictionary
1,RUN PERIOD 1,  51.96,   4.45,   1.00,  -4.50
2,1, 1, 1, 0, 1, 0.00,60.00,Sunday
141,31060533.870102216
190,0.0
2,1, 1, 1, 0, 2, 0.00,60.00,Sunday
141,32434793.065011974
190,0.0
2,1, 1, 1, 0, 3, 0.00,60.00,Sunday
141,32423347.225520864
190,0.0
2,1, 1, 1, 0, 4, 0.00,60.00,Sunday
141,33439305.84500753
190,0.0
2,1, 1, 1, 0, 5, 0.00,60.00,Sunday
141,34132652.77534711
190,0.0
2,1, 1, 1, 0, 6, 0.00,60.00,Sunday
141,34212214.72441623
190,0.0
2,1, 1, 1, 0, 7, 0.00,60.00,Sunday
141,34337887.4825172
190,0.0
2,1, 1, 1, 0, 8, 0.00,60.00,Sunday
141,34247458.51532348
190,0.0
2,1, 1, 1, 0, 9, 0.00,60.00,Sunday
141,34167255.65616947
190,0.0
2,1, 1, 1, 0,10, 0.00,60.00,Sunday
141,33839743.413654745
190,0.0
2,1, 1, 1, 0,11, 0.00,60.00,Sunday
141,32994113.350788705
190,0.0
2,1, 1, 1, 0,12, 0.00,60.00,Sunday
141,31624215.466162875
190,0.0
2,1, 1, 1, 0,13, 0.00,60.00,Sunday
141,30949362.19644347
190,0.0
2,1, 1, 1, 0,14, 0.00,60.00,Sunday
141,30018326.97323427
190,0.0
2,1, 1, 1, 0,15, 0.00,60.00,Sunday
141,29370247.218141753
190,0.0
2,1, 1, 1, 0,16, 0.00,60.00,Sunday
141,29995136.31811604
190,0.0
2,1, 1, 1, 0,17, 0.00,60.00,Sunday
141,30783099.74547094
190,0.0
2,1, 1, 1, 0,18, 0.00,60.00,Sunday
141,31030587.499357663
190,0.0
2,1, 1, 1, 0,19, 0.00,60.00,Sunday
141,31247711.430351734
190,0.0
2,1, 1, 1, 0,20, 0.00,60.00,Sunday
141,31202649.558552597
190,0.0
2,1, 1, 1, 0,21, 0.00,60.00,Sunday
141,31069869.75535182
190,0.0
2,1, 1, 1, 0,22, 0.00,60.00,Sunday
141,31155169.204939157
190,0.0
2,1, 1, 1, 0,23, 0.00,60.00,Sunday
141,30200820.389909826
190,0.0
2,1, 1, 1, 0,24, 0.00,60.00,Sunday
141,29493175.115108646
190,0.0
2,2, 1, 2, 0, 1, 0.00,60.00,Monday
141,29622257.792464733
190,0.0
2,2, 1, 2, 0, 2, 0.00,60.00,Monday
141,28663581.02489225
190,0.0
2,2, 1, 2, 0, 3, 0.00,60.00,Monday
141,27929706.20218705
190,0.0
2,2, 1, 2, 0, 4, 0.00,60.00,Monday
141,27187790.934713766
190,0.0
2,2, 1, 2, 0, 5, 0.00,60.00,Monday
141,25558838.127831876
190,0.0
2,2, 1, 2, 0, 6, 0.00,60.00,Monday
141,24791099.555829097
190,0.0
2,2, 1, 2, 0, 7, 0.00,60.00,Monday
141,23582141.615981318
190,0.0
2,2, 1, 2, 0, 8, 0.00,60.00,Monday
141,22109336.1774928
190,0.0
2,2, 1, 2, 0, 9, 0.00,60.00,Monday
141,22595788.184140824
190,0.0
2,2, 1, 2, 0,10, 0.00,60.00,Monday
141,23738773.500519518
190,0.0
2,2, 1, 2, 0,11, 0.00,60.00,Monday
141,24529236.29212741
190,0.0
2,2, 1, 2, 0,12, 0.00,60.00,Monday
141,23929710.70400863
190,0.0
2,2, 1, 2, 0,13, 0.00,60.00,Monday
141,23705113.13355048
190,0.0
2,2, 1, 2, 0,14, 0.00,60.00,Monday
141,24514558.57226139
190,0.0
2,2, 1, 2, 0,15, 0.00,60.00,Monday
141,24875533.045407336
190,0.0
2,2, 1, 2, 0,16, 0.00,60.00,Monday
141,25623055.96490783
190,0.0
2,2, 1, 2, 0,17, 0.00,60.00,Monday
141,26348322.25703817
190,0.0
2,2, 1, 2, 0,18, 0.00,60.00,Monday
141,26485540.848150726
190,0.0
2,2, 1, 2, 0,19, 0.00,60.00,Monday
141,27272992.898865785
190,0.0
2,2, 1, 2, 0,20, 0.00,60.00,Monday
141,27991386.323508617
190,0.0
2,2, 1, 2, 0,21, 0.00,60.00,Monday
141,28102941.66861116
190,0.0
2,2, 1, 2, 0,22, 0.00,60.00,Monday
141,28072419.941545784
190,0.0
2,2, 1, 2, 0,23, 0.00,60.00,Monday
141,28089947.96575439
190,0.0
2,2, 1, 2, 0,24, 0.00,60.00,Monday
141,28122443.794546638
190,0.0
2,3, 1, 3, 0, 1, 0.00,60.00,Tuesday
141,28179544.342002008
190,0.0
2,3, 1, 3, 0, 2, 0.00,60.00,Tuesday
141,28169907.805329897
190,0.0
2,3, 1, 3, 0, 3, 0.00,60.00,Tuesday
141,28138031.916034725
190,0.0
2,3, 1, 3, 0, 4, 0.00,60.00,Tuesday
141,28255106.3499134
190,0.0
2,3, 1, 3, 0, 5, 0.00,60.00,Tuesday
141,29167109.415437013
190,0.0
2,3, 1, 3, 0, 6, 0.00,60.00,Tuesday
141,29757665.070498575
190,0.0
2,3, 1, 3, 0, 7, 0.00,60.00,Tuesday
141,30041340.48523595
190,0.0
2,3, 1, 3, 0, 8, 0.00,60.00,Tuesday
141,29962328.564259753
190,0.0
2,3, 1, 3, 0, 9, 0.00,60.00,Tuesday
141,30707890.43165941
190,0.0
2,3, 1, 3, 0,10, 0.00,60.00,Tuesday
141,31067511.471103348
190,0.0
2,3, 1, 3, 0,11, 0.00,60.00,Tuesday
141,31160122.779757176
190,0.0
2,3, 1, 3, 0,12, 0.00,60.00,Tuesday
141,31387115.21234816
190,0.0
2,3, 1, 3, 0,13, 0.00,60.00,Tuesday
141,32530896.706568565
190,0.0
2,3, 1, 3, 0,14, 0.00,60.00,Tuesday
141,33158098.68927682
190,0.0
2,3, 1, 3, 0,15, 0.00,60.00,Tuesday
141,33019428.773168914
190,0.0
2,3, 1, 3, 0,16, 0.00,60.00,Tuesday
141,32893699.229637533
190,0.0
2,3, 1, 3, 0,17, 0.00,60.00,Tuesday
141,32930441.39656443
190,0.0
2,3, 1, 3, 0,18, 0.00,60.00,Tuesday
141,33022512.821133424
190,0.0
2,3, 1, 3, 0,19, 0.00,60.00,Tuesday
141,32837565.267327636
190,0.0
2,3, 1, 3, 0,20, 0.00,60.00,Tuesday
141,31938205.622861568
190,0.0
2,3, 1, 3, 0,21, 0.00,60.00,Tuesday
141,29509951.33368823
190,0.0
2,3, 1, 3, 0,22, 0.00,60.00,Tuesday
141,28206770.935581572
190,0.0
2,3, 1, 3, 0,23, 0.00,60.00,Tuesday
141,29134361.07760085
190,0.0
2,3, 1, 3, 0,24, 0.00,60.00,Tuesday
141,30717673.124997098
190,0.0
2,4, 1, 4, 0, 1, 0.00,60.00,Wednesday
141,31506345.390524022
190,0.0
2,4, 1, 4, 0, 2, 0.00,60.00,Wednesday
141,31381445.319711205
190,0.0
2,4, 1, 4, 0, 3, 0.00,60.00,Wednesday
141,31141648.95096098
190,0.0
2,4, 1, 4, 0, 4, 0.00,60.00,Wednesday
141,31406732.25319663
190,0.0
2,4, 1, 4, 0, 5, 0.00,60.00,Wednesday
141,32455632.10069409
190,0.0
2,4, 1, 4, 0, 6, 0.00,60.00,Wednesday
141,32175484.31324901
190,0.0
2,4, 1, 4, 0, 7, 0.00,60.00,Wednesday
141,32119279.03675746
190,0.0
2,4, 1, 4, 0, 8, 0.00,60.00,Wednesday
141,32535444.40094826
190,0.0
2,4, 1, 4, 0, 9, 0.00,60.00,Wednesday
141,32833603.81997723
190,0.0
2,4, 1, 4, 0,10, 0.00,60.00,Wednesday
141,33072188.022885397
190,0.0
2,4, 1, 4, 0,11, 0.00,60.00,Wednesday
141,31160068.186031323
190,0.0
2,4, 1, 4, 0,12, 0.00,60.00,Wednesday
141,27927954.226622257
190,0.0
2,4, 1, 4, 0,13, 0.00,60.00,Wednesday
141,27051193.947157472
190,0.0
2,4, 1, 4, 0,14, 0.00,60.00,Wednesday
141,26923218.748346984
190,0.0
2,4, 1, 4, 0,15, 0.00,60.00,Wednesday
141,26602554.41121816
190,0.0
2,4, 1, 4, 0,16, 0.00,60.00,Wednesday
141,27914260.872907653
190,0.0
2,4, 1, 4, 0,17, 0.00,60.00,Wednesday
141,30272697.478687093
190,0.0
2,4, 1, 4, 0,18, 0.00,60.00,Wednesday
141,32312495.277837962
190,0.0
2,4, 1, 4, 0,19, 0.00,60.00,Wednesday
141,34383163.58790711
190,0.0
2,4, 1, 4, 0,20, 0.00,60.00,Wednesday
141,35455688.63834505
190,0.0
2,4, 1, 4, 0,21, 0.00,60.00,Wednesday
141,35921445.71419013
190,0.0
2,4, 1, 4, 0,22, 0.00,60.00,Wednesday
141,36897425.51304223
190,0.0
2,4, 1, 4, 0,23, 0.00,60.00,Wednesday
141,36411105.875231124
190,0.0
2,4, 1, 4, 0,24, 0.00,60.00,Wednesday
141,35618765.55005394
190,0.0
2,5, 1, 5, 0, 1, 0.00,60.00,Thursday
141,35838378.766573474
190,0.0
2,5, 1, 5, 0, 2, 0.00,60.00,Thursday
141,35276986.01502806
190,0.0
2,5, 1, 5, 0, 3, 0.00,60.00,Thursday
141,34737963.27242105
190,0.0
2,5, 1, 5, 0, 4, 0.00,60.00,Thursday
141,34801990.14054321
190,0.0
2,5, 1, 5, 0, 5, 0.00,60.00,Thursday
141,34211175.875428036
190,0.0
2,5, 1, 5, 0, 6, 0.00,60.00,Thursday
141,33956763.04932298
190,0.0
2,5, 1, 5, 0, 7, 0.00,60.00,Thursday
141,34325580.70314054
190,0.0
2,5, 1, 5, 0, 8, 0.00,60.00,Thursday
141,34652866.51138796
190,0.0
2,5, 1, 5, 0, 9, 0.00,60.00,Thursday
141,34769101.508300714
190,0.0
2,5, 1, 5, 0,10, 0.00,60.00,Thursday
141,35389361.69856806
190,0.0
2,5, 1, 5, 0,11, 0.00,60.00,Thursday
141,35218738.90205799
190,0.0
2,5, 1, 5, 0,12, 0.00,60.00,Thursday
141,33827845.68507772
190,0.0
2,5, 1, 5, 0,13, 0.00,60.00,Thursday
141,33333388.198985744
190,0.0
2,5, 1, 5, 0,14, 0.00,60.00,Thursday
141,32330604.23141875
190,0.0
2,5, 1, 5, 0,15, 0.00,60.00,Thursday
141,31531956.42403268
190,0.0
2,5, 1, 5, 0,16, 0.00,60.00,Thursday
141,32163869.723681964
190,0.0
2,5, 1, 5, 0,17, 0.00,60.00,Thursday
141,31990644.41524836
190,0.0
2,5, 1, 5, 0,18, 0.00,60.00,Thursday
141,31550347.34380164
190,0.0
2,5, 1, 5, 0,19, 0.00,60.00,Thursday
141,31779168.500085317
190,0.0
2,5, 1, 5, 0,20, 0.00,60.00,Thursday
141,31722266.56027992
190,0.0
2,5, 1, 5, 0,21, 0.00,60.00,Thursday
141,31570220.790376566
190,0.0
2,5, 1, 5, 0,22, 0.00,60.00,Thursday
141,31596472.31970504
190,0.0
2,5, 1, 5, 0,23, 0.00,60.00,Thursday
141,31806430.892448675
190,0.0
2,5, 1, 5, 0,24, 0.00,60.00,Thursday
141,32038275.84374207
190,0.0
2,6, 1, 6, 0, 1, 0.00,60.00,Friday
141,32196014.425657474
190,0.0
2,6, 1, 6, 0, 2, 0.00,60.00,Friday
141,32349606.743726116
190,0.0
2,6, 1, 6, 0, 3, 0.00,60.00,Friday
141,33281468.0893134
190,0.0
2,6, 1, 6, 0, 4, 0.00,60.00,Friday
141,34186011.68787321
190,0.0
2,6, 1, 6, 0, 5, 0.00,60.00,Friday
141,34666053.08234576
190,0.0
2,6, 1, 6, 0, 6, 0.00,60.00,Friday
141,35247969.002608046
190,0.0
2,6, 1, 6, 0, 7, 0.00,60.00,Friday
141,36100304.36120534
190,0.0
2,6, 1, 6, 0, 8, 0.00,60.00,Friday
141,36906759.786246695
190,0.0
2,6, 1, 6, 0, 9, 0.00,60.00,Friday
141,37874448.62133439
190,0.0
2,6, 1, 6, 0,10, 0.00,60.00,Friday
141,38454009.12950195
190,0.0
2,6, 1, 6, 0,11, 0.00,60.00,Friday
141,37832343.91286042
190,0.0
2,6, 1, 6, 0,12, 0.00,60.00,Friday
141,36853061.89504078
190,0.0
2,6, 1, 6, 0,13, 0.00,60.00,Friday
141,36394490.096688285
190,0.0
2,6, 1, 6, 0,14, 0.00,60.00,Friday
141,36215147.482290044
190,0.0
2,6, 1, 6, 0,15, 0.00,60.00,Friday
141,35957896.791886434
190,0.0
2,6, 1, 6, 0,16, 0.00,60.00,Friday
141,35344638.40241576
190,0.0
2,6, 1, 6, 0,17, 0.00,60.00,Friday
141,34708774.874342114
190,0.0
2,6, 1, 6, 0,18, 0.00,60.00,Friday
141,34408145.04455527
190,0.0
2,6, 1, 6, 0,19, 0.00,60.00,Friday
141,34054683.30405611
190,0.0
2,6, 1, 6, 0,20, 0.00,60.00,Friday
141,33186193.84225693
190,0.0
2,6, 1, 6, 0,21, 0.00,60.00,Friday
141,31005736.161732092
190,0.0
2,6, 1, 6, 0,22, 0.00,60.00,Friday
141,28395212.79117068
190,0.0
2,6, 1, 6, 0,23, 0.00,60.00,Friday
141,27231158.187315095
190,0.0
2,6, 1, 6, 0,24, 0.00,60.00,Friday
141,27494235.588126365
190,0.0
2,7, 1, 7, 0, 1, 0.00,60.00,Saturday
141,29571247.483825173
190,0.0
2,7, 1, 7, 0, 2, 0.00,60.00,Saturday
141,31641360.241081778
190,0.0
2,7, 1, 7, 0, 3, 0.00,60.00,Saturday
141,31351488.96050702
190,0.0
2,7, 1, 7, 0, 4, 0.00,60.00,Saturday
141,31520084.04721251
190,0.0
2,7, 1, 7, 0, 5, 0.00,60.00,Saturday
141,32933554.765079305
190,0.0
2,7, 1, 7, 0, 6, 0.00,60.00,Saturday
141,34039403.96793426
190,0.0
2,7, 1, 7, 0, 7, 0.00,60.00,Saturday
141,34686993.19125421
190,0.0
2,7, 1, 7, 0, 8, 0.00,60.00,Saturday
141,35004828.389880896
190,0.0
2,7, 1, 7, 0, 9, 0.00,60.00,Saturday
141,34211834.22193366
190,0.0
2,7, 1, 7, 0,10, 0.00,60.00,Saturday
141,33500239.974012274
190,0.0
2,7, 1, 7, 0,11, 0.00,60.00,Saturday
141,31417939.72570254
190,0.0
2,7, 1, 7, 0,12, 0.00,60.00,Saturday
141,29320250.704784717
190,0.0
2,7, 1, 7, 0,13, 0.00,60.00,Saturday
141,27800574.56230382
190,0.0
2,7, 1, 7, 0,14, 0.00,60.00,Saturday
141,27046051.419994444
190,0.0
2,7, 1, 7, 0,15, 0.00,60.00,Saturday
141,27408179.758258298
190,0.0
2,7, 1, 7, 0,16, 0.00,60.00,Saturday
141,28145239.88358043
190,0.0
2,7, 1, 7, 0,17, 0.00,60.00,Saturday
141,28766425.74078339
190,0.0
2,7, 1, 7, 0,18, 0.00,60.00,Saturday
141,29817009.216371108
190,0.0
2,7, 1, 7, 0,19, 0.00,60.00,Saturday
141,30795817.527173977
190,0.0
2,7, 1, 7, 0,20, 0.00,60.00,Saturday
141,31733943.74652287
190,0.0
2,7, 1, 7, 0,21, 0.00,60.00,Saturday
141,32400680.346854582
190,0.0
2,7, 1, 7, 0,22, 0.00,60.00,Saturday
141,32430980.475021888
190,0.0
2,7, 1, 7, 0,23, 0.00,60.00,Saturday
141,32546534.932566006
190,0.0
2,7, 1, 7, 0,24, 0.00,60.00,Saturday
141,32479481.822536223
190,0.0
2,8, 1, 8, 0, 1, 0.00,60.00,Sunday
141,31851717.093663037
190,0.0
2,8, 1, 8, 0, 2, 0.00,60.00,Sunday
141,31119972.272522483
190,0.0
2,8, 1, 8, 0, 3, 0.00,60.00,Sunday
141,30458847.83238082
190,0.0
2,8, 1, 8, 0, 4, 0.00,60.00,Sunday
141,29518384.13268629
190,0.0
2,8, 1, 8, 0, 5, 0.00,60.00,Sunday
141,28378176.768250495
190,0.0
2,8, 1, 8, 0, 6, 0.00,60.00,Sunday
141,27525912.199610546
190,0.0
2,8, 1, 8, 0, 7, 0.00,60.00,Sunday
141,26879729.530271657
190,0.0
2,8, 1, 8, 0, 8, 0.00,60.00,Sunday
141,26329479.099641614
190,0.0
2,8, 1, 8, 0, 9, 0.00,60.00,Sunday
141,25756018.7940313
190,0.0
2,8, 1, 8, 0,10, 0.00,60.00,Sunday
141,25583271.0026752
190,0.0
2,8, 1, 8, 0,11, 0.00,60.00,Sunday
141,25456709.19673328
190,0.0
2,8, 1, 8, 0,12, 0.00,60.00,Sunday
141,25595213.445484284
190,0.0
2,8, 1, 8, 0,13, 0.00,60.00,Sunday
141,25507614.22918809
190,0.0
2,8, 1, 8, 0,14, 0.00,60.00,Sunday
141,25668807.004477017
190,0.0
2,8, 1, 8, 0,15, 0.00,60.00,Sunday
141,26966697.50875645
190,0.0
2,8, 1, 8, 0,16, 0.00,60.00,Sunday
141,27908608.42418409
190,0.0
2,8, 1, 8, 0,17, 0.00,60.00,Sunday
141,27977412.5639963
190,0.0
2,8, 1, 8, 0,18, 0.00,60.00,Sunday
141,28406426.99047271
190,0.0
2,8, 1, 8, 0,19, 0.00,60.00,Sunday
141,28207462.569435757
190,0.0
2,8, 1, 8, 0,20, 0.00,60.00,Sunday
141,27458171.304176956
190,0.0
2,8, 1, 8, 0,21, 0.00,60.00,Sunday
141,26925603.342735045
190,0.0
2,8, 1, 8, 0,22, 0.00,60.00,Sunday
141,27105120.075906277
190,0.0
2,8, 1, 8, 0,23, 0.00,60.00,Sunday
141,27275441.57388516
190,0.0
2,8, 1, 8, 0,24, 0.00,60.00,Sunday
141,27755639.699320383
190,0.0
2,9, 1, 9, 0, 1, 0.00,60.00,Monday
141,27866456.437769268
190,0.0
2,9, 1, 9, 0, 2, 0.00,60.00,Monday
141,27942395.234319262
190,0.0
2,9, 1, 9, 0, 3, 0.00,60.00,Monday
141,27854383.922692966
190,0.0
2,9, 1, 9, 0, 4, 0.00,60.00,Monday
141,27596887.009271465
190,0.0
2,9, 1, 9, 0, 5, 0.00,60.00,Monday
141,26990161.961520962
190,0.0
2,9, 1, 9, 0, 6, 0.00,60.00,Monday
141,26375739.889431
190,0.0
2,9, 1, 9, 0, 7, 0.00,60.00,Monday
141,25938585.678359684
190,0.0
2,9, 1, 9, 0, 8, 0.00,60.00,Monday
141,25711902.676888563
190,0.0
2,9, 1, 9, 0, 9, 0.00,60.00,Monday
141,25048733.56314704
190,0.0
2,9, 1, 9, 0,10, 0.00,60.00,Monday
141,23402868.48419205
190,0.0
2,9, 1, 9, 0,11, 0.00,60.00,Monday
141,22003232.798727512
190,0.0
2,9, 1, 9, 0,12, 0.00,60.00,Monday
141,21238372.03799023
190,0.0
2,9, 1, 9, 0,13, 0.00,60.00,Monday
141,20610974.698963493
190,0.0
2,9, 1, 9, 0,14, 0.00,60.00,Monday
141,20160797.022103436
190,0.0
2,9, 1, 9, 0,15, 0.00,60.00,Monday
141,20021663.654795613
190,0.0
2,9, 1, 9, 0,16, 0.00,60.00,Monday
141,20381565.72129673
190,0.0
2,9, 1, 9, 0,17, 0.00,60.00,Monday
141,21539133.71256513
190,0.0
2,9, 1, 9, 0,18, 0.00,60.00,Monday
141,22632846.14133774
190,0.0
2,9, 1, 9, 0,19, 0.00,60.00,Monday
141,22570873.41445759
190,0.0
2,9, 1, 9, 0,20, 0.00,60.00,Monday
141,21100258.326256886
190,0.0
2,9, 1, 9, 0,21, 0.00,60.00,Monday
141,19614383.312291063
190,0.0
2,9, 1, 9, 0,22, 0.00,60.00,Monday
141,18713559.115558047
190,0.0
2,9, 1, 9, 0,23, 0.00,60.00,Monday
141,18566672.84584517
190,0.0
2,9, 1, 9, 0,24, 0.00,60.00,Monday
141,18688584.858591586
190,0.0
2,10, 1,10, 0, 1, 0.00,60.00,Tuesday
141,19132681.39658324
190,0.0
2,10, 1,10, 0, 2, 0.00,60.00,Tuesday
141,19447558.004504032
190,0.0
2,10, 1,10, 0, 3, 0.00,60.00,Tuesday
141,19531842.31000551
190,0.0
2,10, 1,10, 0, 4, 0.00,60.00,Tuesday
141,20032590.7507902
190,0.0
2,10, 1,10, 0, 5, 0.00,60.00,Tuesday
141,20243597.231479008
190,0.0
2,10, 1,10, 0, 6, 0.00,60.00,Tuesday
141,20342868.537198834
190,0.0
2,10, 1,10, 0, 7, 0.00,60.00,Tuesday
141,20455120.415146217
190,0.0
2,10, 1,10, 0, 8, 0.00,60.00,Tuesday
141,20345816.19984072
190,0.0
2,10, 1,10, 0, 9, 0.00,60.00,Tuesday
141,20168053.561550025
190,0.0
2,10, 1,10, 0,10, 0.00,60.00,Tuesday
141,19907055.5649176
190,0.0
2,10, 1,10, 0,11, 0.00,60.00,Tuesday
141,19499739.454417035
190,0.0
2,10, 1,10, 0,12, 0.00,60.00,Tuesday
141,19025610.04199155
190,0.0
2,10, 1,10, 0,13, 0.00,60.00,Tuesday
141,18998839.27285251
190,0.0
2,10, 1,10, 0,14, 0.00,60.00,Tuesday
141,21010620.32213911
190,0.0
2,10, 1,10, 0,15, 0.00,60.00,Tuesday
141,22648222.43789335
190,0.0
2,10, 1,10, 0,16, 0.00,60.00,Tuesday
141,23679053.737828296
190,0.0
2,10, 1,10, 0,17, 0.00,60.00,Tuesday
141,24737111.26850526
190,0.0
2,10, 1,10, 0,18, 0.00,60.00,Tuesday
141,26090071.390672527
190,0.0
2,10, 1,10, 0,19, 0.00,60.00,Tuesday
141,26829018.074020427
190,0.0
2,10, 1,10, 0,20, 0.00,60.00,Tuesday
141,27393055.375871837
190,0.0
2,10, 1,10, 0,21, 0.00,60.00,Tuesday
141,28254803.48803181
190,0.0
2,10, 1,10, 0,22, 0.00,60.00,Tuesday
141,28762164.311642785
190,0.0
2,10, 1,10, 0,23, 0.00,60.00,Tuesday
141,28508318.789235506
190,0.0
2,10, 1,10, 0,24, 0.00,60.00,Tuesday
141,29075715.99350288
190,0.0
2,11, 1,11, 0, 1, 0.00,60.00,Wednesday
141,29189932.311082937
190,0.0
2,11, 1,11, 0, 2, 0.00,60.00,Wednesday
141,29297516.925904628
190,0.0
2,11, 1,11, 0, 3, 0.00,60.00,Wednesday
141,29609814.24248358
190,0.0
2,11, 1,11, 0, 4, 0.00,60.00,Wednesday
141,29211299.99719742
190,0.0
2,11, 1,11, 0, 5, 0.00,60.00,Wednesday
141,28923730.99796725
190,0.0
2,11, 1,11, 0, 6, 0.00,60.00,Wednesday
141,28814044.53311428
190,0.0
2,11, 1,11, 0, 7, 0.00,60.00,Wednesday
141,28923880.126206905
190,0.0
2,11, 1,11, 0, 8, 0.00,60.00,Wednesday
141,29052889.728062317
190,0.0
2,11, 1,11, 0, 9, 0.00,60.00,Wednesday
141,28962316.46398892
190,0.0
2,11, 1,11, 0,10, 0.00,60.00,Wednesday
141,28719712.931601185
190,0.0
2,11, 1,11, 0,11, 0.00,60.00,Wednesday
141,28312152.895721357
190,0.0
2,11, 1,11, 0,12, 0.00,60.00,Wednesday
141,27648839.86200895
190,0.0
2,11, 1,11, 0,13, 0.00,60.00,Wednesday
141,27130377.06884036
190,0.0
2,11, 1,11, 0,14, 0.00,60.00,Wednesday
141,26897556.63541836
190,0.0
2,11, 1,11, 0,15, 0.00,60.00,Wednesday
141,26819528.009177305
190,0.0
2,11, 1,11, 0,16, 0.00,60.00,Wednesday
141,26812071.696963377
190,0.0
2,11, 1,11, 0,17, 0.00,60.00,Wednesday
141,26433927.066870637
190,0.0
2,11, 1,11, 0,18, 0.00,60.00,Wednesday
141,26069066.067022674
190,0.0
2,11, 1,11, 0,19, 0.00,60.00,Wednesday
141,25806702.10297074
190,0.0
2,11, 1,11, 0,20, 0.00,60.00,Wednesday
141,25751558.729252234
190,0.0
2,11, 1,11, 0,21, 0.00,60.00,Wednesday
141,25711815.40446394
190,0.0
2,11, 1,11, 0,22, 0.00,60.00,Wednesday
141,24980600.207786158
190,0.0
2,11, 1,11, 0,23, 0.00,60.00,Wednesday
141,24411642.98461346
190,0.0
2,11, 1,11, 0,24, 0.00,60.00,Wednesday
141,24428856.85471464
190,0.0
2,12, 1,12, 0, 1, 0.00,60.00,Thursday
141,24667236.502668396
190,0.0
2,12, 1,12, 0, 2, 0.00,60.00,Thursday
141,24685458.609108746
190,0.0
2,12, 1,12, 0, 3, 0.00,60.00,Thursday
141,24506950.33948504
190,0.0
2,12, 1,12, 0, 4, 0.00,60.00,Thursday
141,24519813.714962926
190,0.0
2,12, 1,12, 0, 5, 0.00,60.00,Thursday
141,24756791.791242156
190,0.0
2,12, 1,12, 0, 6, 0.00,60.00,Thursday
141,25329798.154019017
190,0.0
2,12, 1,12, 0, 7, 0.00,60.00,Thursday
141,25637908.713048298
190,0.0
2,12, 1,12, 0, 8, 0.00,60.00,Thursday
141,25710549.194680873
190,0.0
2,12, 1,12, 0, 9, 0.00,60.00,Thursday
141,25299021.158190638
190,0.0
2,12, 1,12, 0,10, 0.00,60.00,Thursday
141,24408493.937148083
190,0.0
2,12, 1,12, 0,11, 0.00,60.00,Thursday
141,23729611.398729738
190,0.0
2,12, 1,12, 0,12, 0.00,60.00,Thursday
141,23340289.371145234
190,0.0
2,12, 1,12, 0,13, 0.00,60.00,Thursday
141,22831122.880241998
190,0.0
2,12, 1,12, 0,14, 0.00,60.00,Thursday
141,22282028.12065661
190,0.0
2,12, 1,12, 0,15, 0.00,60.00,Thursday
141,22258921.598390073
190,0.0
2,12, 1,12, 0,16, 0.00,60.00,Thursday
141,22474107.750291284
190,0.0
2,12, 1,12, 0,17, 0.00,60.00,Thursday
141,23539280.579007044
190,0.0
2,12, 1,12, 0,18, 0.00,60.00,Thursday
141,24160956.6934441
190,0.0
2,12, 1,12, 0,19, 0.00,60.00,Thursday
141,23905198.87197161
190,0.0
2,12, 1,12, 0,20, 0.00,60.00,Thursday
141,23310614.07887236
190,0.0
2,12, 1,12, 0,21, 0.00,60.00,Thursday
141,23067140.751888722
190,0.0
2,12, 1,12, 0,22, 0.00,60.00,Thursday
141,22665670.68207601
190,0.0
2,12, 1,12, 0,23, 0.00,60.00,Thursday
141,22515498.638561774
190,0.0
2,12, 1,12, 0,24, 0.00,60.00,Thursday
141,22545865.252929762
190,0.0
2,13, 1,13, 0, 1, 0.00,60.00,Friday
141,22287184.117627326
190,0.0
2,13, 1,13, 0, 2, 0.00,60.00,Friday
141,22051828.84548379
190,0.0
2,13, 1,13, 0, 3, 0.00,60.00,Friday
141,21699578.210691784
190,0.0
2,13, 1,13, 0, 4, 0.00,60.00,Friday
141,21489399.95284408
190,0.0
2,13, 1,13, 0, 5, 0.00,60.00,Friday
141,21476988.3287068
190,0.0
2,13, 1,13, 0, 6, 0.00,60.00,Friday
141,21557432.135300756
190,0.0
2,13, 1,13, 0, 7, 0.00,60.00,Friday
141,21791290.873989582
190,0.0
2,13, 1,13, 0, 8, 0.00,60.00,Friday
141,21817087.29227977
190,0.0
2,13, 1,13, 0, 9, 0.00,60.00,Friday
141,21562727.345642444
190,0.0
2,13, 1,13, 0,10, 0.00,60.00,Friday
141,22241689.75394808
190,0.0
2,13, 1,13, 0,11, 0.00,60.00,Friday
141,23000901.209438816
190,0.0
2,13, 1,13, 0,12, 0.00,60.00,Friday
141,23062739.868595596
190,0.0
2,13, 1,13, 0,13, 0.00,60.00,Friday
141,23165251.019765094
190,0.0
2,13, 1,13, 0,14, 0.00,60.00,Friday
141,23637091.254711024
190,0.0
2,13, 1,13, 0,15, 0.00,60.00,Friday
141,23896997.874785062
190,0.0
2,13, 1,13, 0,16, 0.00,60.00,Friday
141,23810766.31796686
190,0.0
2,13, 1,13, 0,17, 0.00,60.00,Friday
141,23657033.836573422
190,0.0
2,13, 1,13, 0,18, 0.00,60.00,Friday
141,23586489.66935136
190,0.0
2,13, 1,13, 0,19, 0.00,60.00,Friday
141,24030926.057221547
190,0.0
2,13, 1,13, 0,20, 0.00,60.00,Friday
141,24816391.254101656
190,0.0
2,13, 1,13, 0,21, 0.00,60.00,Friday
141,25519357.514117785
190,0.0
2,13, 1,13, 0,22, 0.00,60.00,Friday
141,25966704.574787904
190,0.0
2,13, 1,13, 0,23, 0.00,60.00,Friday
141,25813946.883970935
190,0.0
2,13, 1,13, 0,24, 0.00,60.00,Friday
141,27635392.343582075
190,0.0
2,14, 1,14, 0, 1, 0.00,60.00,Saturday
141,28890458.970386848
190,0.0
2,14, 1,14, 0, 2, 0.00,60.00,Saturday
141,28376624.7149998
190,0.0
2,14, 1,14, 0, 3, 0.00,60.00,Saturday
141,28487569.237935275
190,0.0
2,14, 1,14, 0, 4, 0.00,60.00,Saturday
141,28295659.200652175
190,0.0
2,14, 1,14, 0, 5, 0.00,60.00,Saturday
141,28242183.572813854
190,0.0
2,14, 1,14, 0, 6, 0.00,60.00,Saturday
141,29562740.19055355
190,0.0
2,14, 1,14, 0, 7, 0.00,60.00,Saturday
141,30550140.849093612
190,0.0
2,14, 1,14, 0, 8, 0.00,60.00,Saturday
141,30213606.291362386
190,0.0
2,14, 1,14, 0, 9, 0.00,60.00,Saturday
141,30724964.52438832
190,0.0
2,14, 1,14, 0,10, 0.00,60.00,Saturday
141,31417082.178960644
190,0.0
2,14, 1,14, 0,11, 0.00,60.00,Saturday
141,31099762.768203206
190,0.0
2,14, 1,14, 0,12, 0.00,60.00,Saturday
141,30635646.664992094
190,0.0
2,14, 1,14, 0,13, 0.00,60.00,Saturday
141,29846470.594505098
190,0.0
2,14, 1,14, 0,14, 0.00,60.00,Saturday
141,28273034.103356324
190,0.0
2,14, 1,14, 0,15, 0.00,60.00,Saturday
141,28055892.76924715
190,0.0
2,14, 1,14, 0,16, 0.00,60.00,Saturday
141,28385540.32487631
190,0.0
2,14, 1,14, 0,17, 0.00,60.00,Saturday
141,28988797.08422709
190,0.0
2,14, 1,14, 0,18, 0.00,60.00,Saturday
141,30122131.926045697
190,0.0
2,14, 1,14, 0,19, 0.00,60.00,Saturday
141,30123335.924258266
190,0.0
2,14, 1,14, 0,20, 0.00,60.00,Saturday
141,30252319.742999867
190,0.0
2,14, 1,14, 0,21, 0.00,60.00,Saturday
141,30008783.014634673
190,0.0
2,14, 1,14, 0,22, 0.00,60.00,Saturday
141,29581597.86361288
190,0.0
2,14, 1,14, 0,23, 0.00,60.00,Saturday
141,29266193.00129734
190,0.0
2,14, 1,14, 0,24, 0.00,60.00,Saturday
141,29118028.220210336
190,0.0
2,15, 1,15, 0, 1, 0.00,60.00,Sunday
141,28393679.184988808
190,0.0
2,15, 1,15, 0, 2, 0.00,60.00,Sunday
141,26713941.68050798
190,0.0
2,15, 1,15, 0, 3, 0.00,60.00,Sunday
141,25886730.89174838
190,0.0
2,15, 1,15, 0, 4, 0.00,60.00,Sunday
141,25301191.906496912
190,0.0
2,15, 1,15, 0, 5, 0.00,60.00,Sunday
141,24241214.487952728
190,0.0
2,15, 1,15, 0, 6, 0.00,60.00,Sunday
141,23127611.373422734
190,0.0
2,15, 1,15, 0, 7, 0.00,60.00,Sunday
141,22030002.100913662
190,0.0
2,15, 1,15, 0, 8, 0.00,60.00,Sunday
141,21302527.455488082
190,0.0
2,15, 1,15, 0, 9, 0.00,60.00,Sunday
141,20750752.984189413
190,0.0
2,15, 1,15, 0,10, 0.00,60.00,Sunday
141,20671001.976089302
190,0.0
2,15, 1,15, 0,11, 0.00,60.00,Sunday
141,21250383.410397053
190,0.0
2,15, 1,15, 0,12, 0.00,60.00,Sunday
141,22746762.076413307
190,0.0
2,15, 1,15, 0,13, 0.00,60.00,Sunday
141,23854582.651639633
190,0.0
2,15, 1,15, 0,14, 0.00,60.00,Sunday
141,24316158.982757222
190,0.0
2,15, 1,15, 0,15, 0.00,60.00,Sunday
141,24503155.610730972
190,0.0
2,15, 1,15, 0,16, 0.00,60.00,Sunday
141,24143630.596634
190,0.0
2,15, 1,15, 0,17, 0.00,60.00,Sunday
141,23899418.787856102
190,0.0
2,15, 1,15, 0,18, 0.00,60.00,Sunday
141,24002091.78514187
190,0.0
2,15, 1,15, 0,19, 0.00,60.00,Sunday
141,24260351.990407716
190,0.0
2,15, 1,15, 0,20, 0.00,60.00,Sunday
141,24591166.853492238
190,0.0
2,15, 1,15, 0,21, 0.00,60.00,Sunday
141,25285782.527435992
190,0.0
2,15, 1,15, 0,22, 0.00,60.00,Sunday
141,25600250.27625089
190,0.0
2,15, 1,15, 0,23, 0.00,60.00,Sunday
141,25642557.094533756
190,0.0
2,15, 1,15, 0,24, 0.00,60.00,Sunday
141,25819875.50797274
190,0.0
2,16, 1,16, 0, 1, 0.00,60.00,Monday
141,26453229.74485975
190,0.0
2,16, 1,16, 0, 2, 0.00,60.00,Monday
141,27045909.819426283
190,0.0
2,16, 1,16, 0, 3, 0.00,60.00,Monday
141,27378728.8491335
190,0.0
2,16, 1,16, 0, 4, 0.00,60.00,Monday
141,27621258.44978576
190,0.0
2,16, 1,16, 0, 5, 0.00,60.00,Monday
141,27984126.529533852
190,0.0
2,16, 1,16, 0, 6, 0.00,60.00,Monday
141,28295236.588385783
190,0.0
2,16, 1,16, 0, 7, 0.00,60.00,Monday
141,28935224.800648622
190,0.0
2,16, 1,16, 0, 8, 0.00,60.00,Monday
141,29535336.76198407
190,0.0
2,16, 1,16, 0, 9, 0.00,60.00,Monday
141,29787737.7303989
190,0.0
2,16, 1,16, 0,10, 0.00,60.00,Monday
141,29785391.87862802
190,0.0
2,16, 1,16, 0,11, 0.00,60.00,Monday
141,28427781.28198549
190,0.0
2,16, 1,16, 0,12, 0.00,60.00,Monday
141,27227411.42660001
190,0.0
2,16, 1,16, 0,13, 0.00,60.00,Monday
141,26294166.855925724
190,0.0
2,16, 1,16, 0,14, 0.00,60.00,Monday
141,25676336.116153903
190,0.0
2,16, 1,16, 0,15, 0.00,60.00,Monday
141,25611277.466613412
190,0.0
2,16, 1,16, 0,16, 0.00,60.00,Monday
141,25886100.760128915
190,0.0
2,16, 1,16, 0,17, 0.00,60.00,Monday
141,26552661.109418347
190,0.0
2,16, 1,16, 0,18, 0.00,60.00,Monday
141,27824065.849564776
190,0.0
2,16, 1,16, 0,19, 0.00,60.00,Monday
141,29157491.46845322
190,0.0
2,16, 1,16, 0,20, 0.00,60.00,Monday
141,29825736.437610455
190,0.0
2,16, 1,16, 0,21, 0.00,60.00,Monday
141,30348793.384663023
190,0.0
2,16, 1,16, 0,22, 0.00,60.00,Monday
141,30821043.546789914
190,0.0
2,16, 1,16, 0,23, 0.00,60.00,Monday
141,31542400.90907103
190,0.0
2,16, 1,16, 0,24, 0.00,60.00,Monday
141,31686682.37732207
190,0.0
2,17, 1,17, 0, 1, 0.00,60.00,Tuesday
141,31886485.710057545
190,0.0
2,17, 1,17, 0, 2, 0.00,60.00,Tuesday
141,32752394.32295783
190,0.0
2,17, 1,17, 0, 3, 0.00,60.00,Tuesday
141,33465400.473453477
190,0.0
2,17, 1,17, 0, 4, 0.00,60.00,Tuesday
141,34065516.43254232
190,0.0
2,17, 1,17, 0, 5, 0.00,60.00,Tuesday
141,34737283.53552144
190,0.0
2,17, 1,17, 0, 6, 0.00,60.00,Tuesday
141,35411667.86291165
190,0.0
2,17, 1,17, 0, 7, 0.00,60.00,Tuesday
141,35796465.92760889
190,0.0
2,17, 1,17, 0, 8, 0.00,60.00,Tuesday
141,35979654.79470784
190,0.0
2,17, 1,17, 0, 9, 0.00,60.00,Tuesday
141,35977781.78816282
190,0.0
2,17, 1,17, 0,10, 0.00,60.00,Tuesday
141,34385043.52201308
190,0.0
2,17, 1,17, 0,11, 0.00,60.00,Tuesday
141,32058486.553531416
190,0.0
2,17, 1,17, 0,12, 0.00,60.00,Tuesday
141,30048091.287843104
190,0.0
2,17, 1,17, 0,13, 0.00,60.00,Tuesday
141,28866700.99115502
190,0.0
2,17, 1,17, 0,14, 0.00,60.00,Tuesday
141,28596930.56607268
190,0.0
2,17, 1,17, 0,15, 0.00,60.00,Tuesday
141,28964625.603433903
190,0.0
2,17, 1,17, 0,16, 0.00,60.00,Tuesday
141,30079330.536991738
190,0.0
2,17, 1,17, 0,17, 0.00,60.00,Tuesday
141,30972855.687952615
190,0.0
2,17, 1,17, 0,18, 0.00,60.00,Tuesday
141,31080003.735799283
190,0.0
2,17, 1,17, 0,19, 0.00,60.00,Tuesday
141,31011095.908281825
190,0.0
2,17, 1,17, 0,20, 0.00,60.00,Tuesday
141,31212733.09853725
190,0.0
2,17, 1,17, 0,21, 0.00,60.00,Tuesday
141,31549489.823300123
190,0.0
2,17, 1,17, 0,22, 0.00,60.00,Tuesday
141,31595794.701013416
190,0.0
2,17, 1,17, 0,23, 0.00,60.00,Tuesday
141,31626880.741534624
190,0.0
2,17, 1,17, 0,24, 0.00,60.00,Tuesday
141,32082586.717334814
190,0.0
2,18, 1,18, 0, 1, 0.00,60.00,Wednesday
141,32361100.61598157
190,0.0
2,18, 1,18, 0, 2, 0.00,60.00,Wednesday
141,32553103.51598713
190,0.0
2,18, 1,18, 0, 3, 0.00,60.00,Wednesday
141,32592659.327082098
190,0.0
2,18, 1,18, 0, 4, 0.00,60.00,Wednesday
141,32524063.689021137
190,0.0
2,18, 1,18, 0, 5, 0.00,60.00,Wednesday
141,32526563.5317929
190,0.0
2,18, 1,18, 0, 6, 0.00,60.00,Wednesday
141,32624046.668788522
190,0.0
2,18, 1,18, 0, 7, 0.00,60.00,Wednesday
141,33363698.05070576
190,0.0
2,18, 1,18, 0, 8, 0.00,60.00,Wednesday
141,33564420.24756265
190,0.0
2,18, 1,18, 0, 9, 0.00,60.00,Wednesday
141,33660266.201380536
190,0.0
2,18, 1,18, 0,10, 0.00,60.00,Wednesday
141,33587310.22274484
190,0.0
2,18, 1,18, 0,11, 0.00,60.00,Wednesday
141,32819197.527132288
190,0.0
2,18, 1,18, 0,12, 0.00,60.00,Wednesday
141,32228819.71905432
190,0.0
2,18, 1,18, 0,13, 0.00,60.00,Wednesday
141,32476774.381199393
190,0.0
2,18, 1,18, 0,14, 0.00,60.00,Wednesday
141,33034948.62300361
190,0.0
2,18, 1,18, 0,15, 0.00,60.00,Wednesday
141,33336814.300544225
190,0.0
2,18, 1,18, 0,16, 0.00,60.00,Wednesday
141,33987882.68629091
190,0.0
2,18, 1,18, 0,17, 0.00,60.00,Wednesday
141,34315401.92766978
190,0.0
2,18, 1,18, 0,18, 0.00,60.00,Wednesday
141,34066979.88114234
190,0.0
2,18, 1,18, 0,19, 0.00,60.00,Wednesday
141,33945357.19055559
190,0.0
2,18, 1,18, 0,20, 0.00,60.00,Wednesday
141,34058034.0300048
190,0.0
2,18, 1,18, 0,21, 0.00,60.00,Wednesday
141,34137346.97330588
190,0.0
2,18, 1,18, 0,22, 0.00,60.00,Wednesday
141,34344740.67824441
190,0.0
2,18, 1,18, 0,23, 0.00,60.00,Wednesday
141,34494738.31256407
190,0.0
2,18, 1,18, 0,24, 0.00,60.00,Wednesday
141,34697246.30652824
190,0.0
2,19, 1,19, 0, 1, 0.00,60.00,Thursday
141,34458383.047334924