Program Version,EnergyPlus, Version 24.2.0-94a887817b, YMD=2025.04.24 13:22
1,5,Environment Title[],Latitude[deg],Longitude[deg],Time Zone[],Elevation[m]
2,8,Day of Simulation[],Month[],Day of Month[],DST Indicator[1=yes 0=no],Hour[],StartMinute[],EndMinute[],DayType
3,5,Cumulative Day of Simulation[],Month[],Day of Month[],DST Indicator[1=yes 0=no],DayType  ! When Daily Report Variables Requested
4,2,Cumulative Days of Simulation[],Month[]  ! When Monthly Report Variables Requested
5,1,Cumulative Days of Simulation[] ! When Run Period Report Variables Requested
6,1,Calendar Year of Simulation[] ! When Annual Report Variables Requested
141,1,ZONE_0599100000357927 IDEAL LOADS AIR SYSTEM,Zone Ideal Loads Supply Air Total Heating Energy [J] !Hourly
190,1,ZONE_0599100000357927 IDEAL LOADS AIR SYSTEM,Zone Ideal Loads Supply Air Total Cooling Energy [J] !Hourly
End of Data Dictionary
1,RUN PERIOD 1,  51.96,   4.45,   1.00,  -4.50
2,1, 1, 1, 0, 1, 0.00,60.00,Sunday
141,40133528.38755998
190,0.0
2,1, 1, 1, 0, 2, 0.00,60.00,Sunday
141,41607182.652637176
190,0.0
2,1, 1, 1, 0, 3, 0.00,60.00,Sunday
141,41586684.27158486
190,0.0
2,1, 1, 1, 0, 4, 0.00,60.00,Sunday
141,42671707.42581024
190,0.0
2,1, 1, 1, 0, 5, 0.00,60.00,Sunday
141,43408205.53636899
190,0.0
2,1, 1, 1, 0, 6, 0.00,60.00,Sunday
141,43482907.915625274
190,0.0
2,1, 1, 1, 0, 7, 0.00,60.00,Sunday
141,43607115.01409584
190,0.0
2,1, 1, 1, 0, 8, 0.00,60.00,Sunday
141,43498703.0992938
190,0.0
2,1, 1, 1, 0, 9, 0.00,60.00,Sunday
141,43401972.22361986
190,0.0
2,1, 1, 1, 0,10, 0.00,60.00,Sunday
141,43040312.923320256
190,0.0
2,1, 1, 1, 0,11, 0.00,60.00,Sunday
141,42122254.31490238
190,0.0
2,1, 1, 1, 0,12, 0.00,60.00,Sunday
141,40641598.6268068
190,0.0
2,1, 1, 1, 0,13, 0.00,60.00,Sunday
141,39912235.90943902
190,0.0
2,1, 1, 1, 0,14, 0.00,60.00,Sunday
141,38909451.24157912
190,0.0
2,1, 1, 1, 0,15, 0.00,60.00,Sunday
141,38214103.63877332
190,0.0
2,1, 1, 1, 0,16, 0.00,60.00,Sunday
141,38892422.37405763
190,0.0
2,1, 1, 1, 0,17, 0.00,60.00,Sunday
141,39748084.67661755
190,0.0
2,1, 1, 1, 0,18, 0.00,60.00,Sunday
141,40022468.35944185
190,0.0
2,1, 1, 1, 0,19, 0.00,60.00,Sunday
141,40264017.7096657
190,0.0
2,1, 1, 1, 0,20, 0.00,60.00,Sunday
141,40221865.19237831
190,0.0
2,1, 1, 1, 0,21, 0.00,60.00,Sunday
141,40083152.69078613
190,0.0
2,1, 1, 1, 0,22, 0.00,60.00,Sunday
141,40176885.592063814
190,0.0
2,1, 1, 1, 0,23, 0.00,60.00,Sunday
141,39148063.60125166
190,0.0
2,1, 1, 1, 0,24, 0.00,60.00,Sunday
141,38382389.20280834
190,0.0
2,2, 1, 2, 0, 1, 0.00,60.00,Monday
141,38515782.490480766
190,0.0
2,2, 1, 2, 0, 2, 0.00,60.00,Monday
141,37475575.24537617
190,0.0
2,2, 1, 2, 0, 3, 0.00,60.00,Monday
141,36675953.031608924
190,0.0
2,2, 1, 2, 0, 4, 0.00,60.00,Monday
141,35866548.12581349
190,0.0
2,2, 1, 2, 0, 5, 0.00,60.00,Monday
141,34100707.434881896
190,0.0
2,2, 1, 2, 0, 6, 0.00,60.00,Monday
141,33261776.14014969
190,0.0
2,2, 1, 2, 0, 7, 0.00,60.00,Monday
141,31947009.593705032
190,0.0
2,2, 1, 2, 0, 8, 0.00,60.00,Monday
141,30347344.64420363
190,0.0
2,2, 1, 2, 0, 9, 0.00,60.00,Monday
141,30857317.894606564
190,0.0
2,2, 1, 2, 0,10, 0.00,60.00,Monday
141,32073549.101848267
190,0.0
2,2, 1, 2, 0,11, 0.00,60.00,Monday
141,32908833.257720213
190,0.0
2,2, 1, 2, 0,12, 0.00,60.00,Monday
141,32245400.838777177
190,0.0
2,2, 1, 2, 0,13, 0.00,60.00,Monday
141,31984042.8043201
190,0.0
2,2, 1, 2, 0,14, 0.00,60.00,Monday
141,32834312.969785485
190,0.0
2,2, 1, 2, 0,15, 0.00,60.00,Monday
141,33199100.506108142
190,0.0
2,2, 1, 2, 0,16, 0.00,60.00,Monday
141,33977913.45020013
190,0.0
2,2, 1, 2, 0,17, 0.00,60.00,Monday
141,34730282.32512324
190,0.0
2,2, 1, 2, 0,18, 0.00,60.00,Monday
141,34847033.622723185
190,0.0
2,2, 1, 2, 0,19, 0.00,60.00,Monday
141,35662495.00434513
190,0.0
2,2, 1, 2, 0,20, 0.00,60.00,Monday
141,36402017.76225775
190,0.0
2,2, 1, 2, 0,21, 0.00,60.00,Monday
141,36486905.763630815
190,0.0
2,2, 1, 2, 0,22, 0.00,60.00,Monday
141,36418405.10250217
190,0.0
2,2, 1, 2, 0,23, 0.00,60.00,Monday
141,36401537.64831336
190,0.0
2,2, 1, 2, 0,24, 0.00,60.00,Monday
141,36401288.97345631
190,0.0
2,3, 1, 3, 0, 1, 0.00,60.00,Tuesday
141,36428542.71992569
190,0.0
2,3, 1, 3, 0, 2, 0.00,60.00,Tuesday
141,36385200.16096248
190,0.0
2,3, 1, 3, 0, 3, 0.00,60.00,Tuesday
141,36319595.51786583
190,0.0
2,3, 1, 3, 0, 4, 0.00,60.00,Tuesday
141,36416515.34277917
190,0.0
2,3, 1, 3, 0, 5, 0.00,60.00,Tuesday
141,37371872.1468338
190,0.0
2,3, 1, 3, 0, 6, 0.00,60.00,Tuesday
141,37983316.76667723
190,0.0
2,3, 1, 3, 0, 7, 0.00,60.00,Tuesday
141,38266887.36245874
190,0.0
2,3, 1, 3, 0, 8, 0.00,60.00,Tuesday
141,38162392.52291
190,0.0
2,3, 1, 3, 0, 9, 0.00,60.00,Tuesday
141,38948772.37608115
190,0.0
2,3, 1, 3, 0,10, 0.00,60.00,Tuesday
141,39322343.81444262
190,0.0
2,3, 1, 3, 0,11, 0.00,60.00,Tuesday
141,39410950.89879795
190,0.0
2,3, 1, 3, 0,12, 0.00,60.00,Tuesday
141,39646899.546177775
190,0.0
2,3, 1, 3, 0,13, 0.00,60.00,Tuesday
141,40872775.703587525
190,0.0
2,3, 1, 3, 0,14, 0.00,60.00,Tuesday
141,41544288.6995424
190,0.0
2,3, 1, 3, 0,15, 0.00,60.00,Tuesday
141,41392646.41986756
190,0.0
2,3, 1, 3, 0,16, 0.00,60.00,Tuesday
141,41256406.23728563
190,0.0
2,3, 1, 3, 0,17, 0.00,60.00,Tuesday
141,41296248.41412371
190,0.0
2,3, 1, 3, 0,18, 0.00,60.00,Tuesday
141,41396402.08031611
190,0.0
2,3, 1, 3, 0,19, 0.00,60.00,Tuesday
141,41198587.12061522
190,0.0
2,3, 1, 3, 0,20, 0.00,60.00,Tuesday
141,40231309.81878285
190,0.0
2,3, 1, 3, 0,21, 0.00,60.00,Tuesday
141,37617089.2554171
190,0.0
2,3, 1, 3, 0,22, 0.00,60.00,Tuesday
141,36214557.36859454
190,0.0
2,3, 1, 3, 0,23, 0.00,60.00,Tuesday
141,37214589.79928348
190,0.0
2,3, 1, 3, 0,24, 0.00,60.00,Tuesday
141,38920789.87565182
190,0.0
2,4, 1, 4, 0, 1, 0.00,60.00,Wednesday
141,39771140.253926605
190,0.0
2,4, 1, 4, 0, 2, 0.00,60.00,Wednesday
141,39637496.8252412
190,0.0
2,4, 1, 4, 0, 3, 0.00,60.00,Wednesday
141,39380211.49172935
190,0.0
2,4, 1, 4, 0, 4, 0.00,60.00,Wednesday
141,39666983.47778127
190,0.0
2,4, 1, 4, 0, 5, 0.00,60.00,Wednesday
141,40798084.346870326
190,0.0
2,4, 1, 4, 0, 6, 0.00,60.00,Wednesday
141,40497790.175167724
190,0.0
2,4, 1, 4, 0, 7, 0.00,60.00,Wednesday
141,40439242.69540571
190,0.0
2,4, 1, 4, 0, 8, 0.00,60.00,Wednesday
141,40890128.275439754
190,0.0
2,4, 1, 4, 0, 9, 0.00,60.00,Wednesday
141,41214967.41612157
190,0.0
2,4, 1, 4, 0,10, 0.00,60.00,Wednesday
141,41477200.36685559
190,0.0
2,4, 1, 4, 0,11, 0.00,60.00,Wednesday
141,39424413.58677575
190,0.0
2,4, 1, 4, 0,12, 0.00,60.00,Wednesday
141,35951673.08357944
190,0.0
2,4, 1, 4, 0,13, 0.00,60.00,Wednesday
141,35018102.93777053
190,0.0
2,4, 1, 4, 0,14, 0.00,60.00,Wednesday
141,34893028.0164343
190,0.0
2,4, 1, 4, 0,15, 0.00,60.00,Wednesday
141,34562353.49567119
190,0.0
2,4, 1, 4, 0,16, 0.00,60.00,Wednesday
141,35991779.70221553
190,0.0
2,4, 1, 4, 0,17, 0.00,60.00,Wednesday
141,38549778.39856252
190,0.0
2,4, 1, 4, 0,18, 0.00,60.00,Wednesday
141,40765087.49553962
190,0.0
2,4, 1, 4, 0,19, 0.00,60.00,Wednesday
141,43013680.17783051
190,0.0
2,4, 1, 4, 0,20, 0.00,60.00,Wednesday
141,44186284.67800797
190,0.0
2,4, 1, 4, 0,21, 0.00,60.00,Wednesday
141,44703977.9568562
190,0.0
2,4, 1, 4, 0,22, 0.00,60.00,Wednesday
141,45769758.06192917
190,0.0
2,4, 1, 4, 0,23, 0.00,60.00,Wednesday
141,45258496.490955055
190,0.0
2,4, 1, 4, 0,24, 0.00,60.00,Wednesday
141,44415794.00023114
190,0.0
2,5, 1, 5, 0, 1, 0.00,60.00,Thursday
141,44661728.248036444
190,0.0
2,5, 1, 5, 0, 2, 0.00,60.00,Thursday
141,44065128.47884564
190,0.0
2,5, 1, 5, 0, 3, 0.00,60.00,Thursday
141,43491924.555680364
190,0.0
2,5, 1, 5, 0, 4, 0.00,60.00,Thursday
141,43568238.14065121
190,0.0
2,5, 1, 5, 0, 5, 0.00,60.00,Thursday
141,42939391.32329283
190,0.0
2,5, 1, 5, 0, 6, 0.00,60.00,Thursday
141,42673594.56585868
190,0.0
2,5, 1, 5, 0, 7, 0.00,60.00,Thursday
141,43080367.132414326
190,0.0
2,5, 1, 5, 0, 8, 0.00,60.00,Thursday
141,43443824.96116553
190,0.0
2,5, 1, 5, 0, 9, 0.00,60.00,Thursday
141,43581696.58229109
190,0.0
2,5, 1, 5, 0,10, 0.00,60.00,Thursday
141,44264523.259495206
190,0.0
2,5, 1, 5, 0,11, 0.00,60.00,Thursday
141,44097293.556961425
190,0.0
2,5, 1, 5, 0,12, 0.00,60.00,Thursday
141,42617417.6523526
190,0.0
2,5, 1, 5, 0,13, 0.00,60.00,Thursday
141,42104831.04799114
190,0.0
2,5, 1, 5, 0,14, 0.00,60.00,Thursday
141,41045929.663215205
190,0.0
2,5, 1, 5, 0,15, 0.00,60.00,Thursday
141,40207873.84026271
190,0.0
2,5, 1, 5, 0,16, 0.00,60.00,Thursday
141,40911415.14317761
190,0.0
2,5, 1, 5, 0,17, 0.00,60.00,Thursday
141,40747588.63795955
190,0.0
2,5, 1, 5, 0,18, 0.00,60.00,Thursday
141,40295281.83298626
190,0.0
2,5, 1, 5, 0,19, 0.00,60.00,Thursday
141,40562134.49594329
190,0.0
2,5, 1, 5, 0,20, 0.00,60.00,Thursday
141,40518667.011818305
190,0.0
2,5, 1, 5, 0,21, 0.00,60.00,Thursday
141,40369580.06675729
190,0.0
2,5, 1, 5, 0,22, 0.00,60.00,Thursday
141,40409092.55694375
190,0.0
2,5, 1, 5, 0,23, 0.00,60.00,Thursday
141,40642818.280325845
190,0.0
2,5, 1, 5, 0,24, 0.00,60.00,Thursday
141,40896473.24555711
190,0.0
2,6, 1, 6, 0, 1, 0.00,60.00,Friday
141,41066943.46034172
190,0.0
2,6, 1, 6, 0, 2, 0.00,60.00,Friday
141,41229900.17466764
190,0.0
2,6, 1, 6, 0, 3, 0.00,60.00,Friday
141,42228472.822944716
190,0.0
2,6, 1, 6, 0, 4, 0.00,60.00,Friday
141,43195310.194553144
190,0.0
2,6, 1, 6, 0, 5, 0.00,60.00,Friday
141,43702933.84773008
190,0.0
2,6, 1, 6, 0, 6, 0.00,60.00,Friday
141,44318665.69551069
190,0.0
2,6, 1, 6, 0, 7, 0.00,60.00,Friday
141,45224331.66000822
190,0.0
2,6, 1, 6, 0, 8, 0.00,60.00,Friday
141,46079567.66292142
190,0.0
2,6, 1, 6, 0, 9, 0.00,60.00,Friday
141,47107715.23836705
190,0.0
2,6, 1, 6, 0,10, 0.00,60.00,Friday
141,47717420.430977866
190,0.0
2,6, 1, 6, 0,11, 0.00,60.00,Friday
141,47033256.24732941
190,0.0
2,6, 1, 6, 0,12, 0.00,60.00,Friday
141,45964308.666926324
190,0.0
2,6, 1, 6, 0,13, 0.00,60.00,Friday
141,45457193.01484643
190,0.0
2,6, 1, 6, 0,14, 0.00,60.00,Friday
141,45252260.45321587
190,0.0
2,6, 1, 6, 0,15, 0.00,60.00,Friday
141,44965343.57023239
190,0.0
2,6, 1, 6, 0,16, 0.00,60.00,Friday
141,44297147.82673439
190,0.0
2,6, 1, 6, 0,17, 0.00,60.00,Friday
141,43606756.77077605
190,0.0
2,6, 1, 6, 0,18, 0.00,60.00,Friday
141,43279340.940739214
190,0.0
2,6, 1, 6, 0,19, 0.00,60.00,Friday
141,42896275.036311366
190,0.0
2,6, 1, 6, 0,20, 0.00,60.00,Friday
141,41959119.500761025
190,0.0
2,6, 1, 6, 0,21, 0.00,60.00,Friday
141,39608913.09147884
190,0.0
2,6, 1, 6, 0,22, 0.00,60.00,Friday
141,36795247.90850494
190,0.0
2,6, 1, 6, 0,23, 0.00,60.00,Friday
141,35539297.88290472
190,0.0
2,6, 1, 6, 0,24, 0.00,60.00,Friday
141,35820204.554520205
190,0.0
2,7, 1, 7, 0, 1, 0.00,60.00,Saturday
141,38054677.968621984
190,0.0
2,7, 1, 7, 0, 2, 0.00,60.00,Saturday
141,40281453.90638448
190,0.0
2,7, 1, 7, 0, 3, 0.00,60.00,Saturday
141,39965888.33504991
190,0.0
2,7, 1, 7, 0, 4, 0.00,60.00,Saturday
141,40143701.05769843
190,0.0
2,7, 1, 7, 0, 5, 0.00,60.00,Saturday
141,41661747.89505048
190,0.0
2,7, 1, 7, 0, 6, 0.00,60.00,Saturday
141,42847687.331786804
190,0.0
2,7, 1, 7, 0, 7, 0.00,60.00,Saturday
141,43539296.331033014
190,0.0
2,7, 1, 7, 0, 8, 0.00,60.00,Saturday
141,43875234.09465867
190,0.0
2,7, 1, 7, 0, 9, 0.00,60.00,Saturday
141,43014638.70856997
190,0.0
2,7, 1, 7, 0,10, 0.00,60.00,Saturday
141,42242216.72543126
190,0.0
2,7, 1, 7, 0,11, 0.00,60.00,Saturday
141,39994472.85518681
190,0.0
2,7, 1, 7, 0,12, 0.00,60.00,Saturday
141,37731833.011426724
190,0.0
2,7, 1, 7, 0,13, 0.00,60.00,Saturday
141,36093984.082590885
190,0.0
2,7, 1, 7, 0,14, 0.00,60.00,Saturday
141,35282942.81915578
190,0.0
2,7, 1, 7, 0,15, 0.00,60.00,Saturday
141,35677488.917874336
190,0.0
2,7, 1, 7, 0,16, 0.00,60.00,Saturday
141,36478540.55013973
190,0.0
2,7, 1, 7, 0,17, 0.00,60.00,Saturday
141,37156775.12736861
190,0.0
2,7, 1, 7, 0,18, 0.00,60.00,Saturday
141,38298409.742256746
190,0.0
2,7, 1, 7, 0,19, 0.00,60.00,Saturday
141,39362229.08397918
190,0.0
2,7, 1, 7, 0,20, 0.00,60.00,Saturday
141,40380295.73270449
190,0.0
2,7, 1, 7, 0,21, 0.00,60.00,Saturday
141,41102932.30813309
190,0.0
2,7, 1, 7, 0,22, 0.00,60.00,Saturday
141,41136148.51143398
190,0.0
2,7, 1, 7, 0,23, 0.00,60.00,Saturday
141,41256984.226860605
190,0.0
2,7, 1, 7, 0,24, 0.00,60.00,Saturday
141,41177024.00507975
190,0.0
2,8, 1, 8, 0, 1, 0.00,60.00,Sunday
141,40489381.86354144
190,0.0
2,8, 1, 8, 0, 2, 0.00,60.00,Sunday
141,39686591.63505293
190,0.0
2,8, 1, 8, 0, 3, 0.00,60.00,Sunday
141,38957376.84834906
190,0.0
2,8, 1, 8, 0, 4, 0.00,60.00,Sunday
141,37925398.97918473
190,0.0
2,8, 1, 8, 0, 5, 0.00,60.00,Sunday
141,36677040.780738994
190,0.0
2,8, 1, 8, 0, 6, 0.00,60.00,Sunday
141,35738062.72107147
190,0.0
2,8, 1, 8, 0, 7, 0.00,60.00,Sunday
141,35020778.296339504
190,0.0
2,8, 1, 8, 0, 8, 0.00,60.00,Sunday
141,34406859.786914185
190,0.0
2,8, 1, 8, 0, 9, 0.00,60.00,Sunday
141,33768150.792991735
190,0.0
2,8, 1, 8, 0,10, 0.00,60.00,Sunday
141,33561462.31120825
190,0.0
2,8, 1, 8, 0,11, 0.00,60.00,Sunday
141,33404824.273366198
190,0.0
2,8, 1, 8, 0,12, 0.00,60.00,Sunday
141,33533972.91796402
190,0.0
2,8, 1, 8, 0,13, 0.00,60.00,Sunday
141,33419643.102040112
190,0.0
2,8, 1, 8, 0,14, 0.00,60.00,Sunday
141,33573114.26696669
190,0.0
2,8, 1, 8, 0,15, 0.00,60.00,Sunday
141,34950581.576331444
190,0.0
2,8, 1, 8, 0,16, 0.00,60.00,Sunday
141,35943904.65769181
190,0.0
2,8, 1, 8, 0,17, 0.00,60.00,Sunday
141,35995867.82190524
190,0.0
2,8, 1, 8, 0,18, 0.00,60.00,Sunday
141,36434696.81457076
190,0.0
2,8, 1, 8, 0,19, 0.00,60.00,Sunday
141,36195852.33517792
190,0.0
2,8, 1, 8, 0,20, 0.00,60.00,Sunday
141,35362965.72094853
190,0.0
2,8, 1, 8, 0,21, 0.00,60.00,Sunday
141,34762281.63947377
190,0.0
2,8, 1, 8, 0,22, 0.00,60.00,Sunday
141,34927579.28095321
190,0.0
2,8, 1, 8, 0,23, 0.00,60.00,Sunday
141,35082202.81307556
190,0.0
2,8, 1, 8, 0,24, 0.00,60.00,Sunday
141,35570127.32955178
190,0.0
2,9, 1, 9, 0, 1, 0.00,60.00,Monday
141,35660042.02409385
190,0.0
2,9, 1, 9, 0, 2, 0.00,60.00,Monday
141,35712513.38095239
190,0.0
2,9, 1, 9, 0, 3, 0.00,60.00,Monday
141,35588770.75062644
190,0.0
2,9, 1, 9, 0, 4, 0.00,60.00,Monday
141,35283014.362162784
190,0.0
2,9, 1, 9, 0, 5, 0.00,60.00,Monday
141,34601796.7330121
190,0.0
2,9, 1, 9, 0, 6, 0.00,60.00,Monday
141,33913217.91314899
190,0.0
2,9, 1, 9, 0, 7, 0.00,60.00,Monday
141,33416689.533104714
190,0.0
2,9, 1, 9, 0, 8, 0.00,60.00,Monday
141,33148240.573894717
190,0.0
2,9, 1, 9, 0, 9, 0.00,60.00,Monday
141,32411193.217252873
190,0.0
2,9, 1, 9, 0,10, 0.00,60.00,Monday
141,30617293.874783546
190,0.0
2,9, 1, 9, 0,11, 0.00,60.00,Monday
141,29090225.04553177
190,0.0
2,9, 1, 9, 0,12, 0.00,60.00,Monday
141,28248298.690377433
190,0.0
2,9, 1, 9, 0,13, 0.00,60.00,Monday
141,27555616.907324497
190,0.0
2,9, 1, 9, 0,14, 0.00,60.00,Monday
141,27054668.92977696
190,0.0
2,9, 1, 9, 0,15, 0.00,60.00,Monday
141,26889232.374304645
190,0.0
2,9, 1, 9, 0,16, 0.00,60.00,Monday
141,27261415.85595503
190,0.0
2,9, 1, 9, 0,17, 0.00,60.00,Monday
141,28492439.003072444
190,0.0
2,9, 1, 9, 0,18, 0.00,60.00,Monday
141,29653939.363029495
190,0.0
2,9, 1, 9, 0,19, 0.00,60.00,Monday
141,29569506.035614837
190,0.0
2,9, 1, 9, 0,20, 0.00,60.00,Monday
141,27966398.462356377
190,0.0
2,9, 1, 9, 0,21, 0.00,60.00,Monday
141,26345324.326988176
190,0.0
2,9, 1, 9, 0,22, 0.00,60.00,Monday
141,25352836.341408413
190,0.0
2,9, 1, 9, 0,23, 0.00,60.00,Monday
141,25170883.23630233
190,0.0
2,9, 1, 9, 0,24, 0.00,60.00,Monday
141,25276990.42132687
190,0.0
2,10, 1,10, 0, 1, 0.00,60.00,Tuesday
141,25728728.826603036
190,0.0
2,10, 1,10, 0, 2, 0.00,60.00,Tuesday
141,26039928.2506004
190,0.0
2,10, 1,10, 0, 3, 0.00,60.00,Tuesday
141,26101348.04233193
190,0.0
2,10, 1,10, 0, 4, 0.00,60.00,Tuesday
141,26609876.34411363
190,0.0
2,10, 1,10, 0, 5, 0.00,60.00,Tuesday
141,26804719.849087182
190,0.0
2,10, 1,10, 0, 6, 0.00,60.00,Tuesday
141,26877499.542273454
190,0.0
2,10, 1,10, 0, 7, 0.00,60.00,Tuesday
141,26962522.910680525
190,0.0
2,10, 1,10, 0, 8, 0.00,60.00,Tuesday
141,26807111.708266243
190,0.0
2,10, 1,10, 0, 9, 0.00,60.00,Tuesday
141,26576274.706155177
190,0.0
2,10, 1,10, 0,10, 0.00,60.00,Tuesday
141,26254250.592297412
190,0.0
2,10, 1,10, 0,11, 0.00,60.00,Tuesday
141,25773264.82178484
190,0.0
2,10, 1,10, 0,12, 0.00,60.00,Tuesday
141,25219234.877341446
190,0.0
2,10, 1,10, 0,13, 0.00,60.00,Tuesday
141,25146145.332070913
190,0.0
2,10, 1,10, 0,14, 0.00,60.00,Tuesday
141,27268206.171287112
190,0.0
2,10, 1,10, 0,15, 0.00,60.00,Tuesday
141,28986766.78500022
190,0.0
2,10, 1,10, 0,16, 0.00,60.00,Tuesday
141,30051392.999488942
190,0.0
2,10, 1,10, 0,17, 0.00,60.00,Tuesday
141,31145161.99089337
190,0.0
2,10, 1,10, 0,18, 0.00,60.00,Tuesday
141,32556419.3383706
190,0.0
2,10, 1,10, 0,19, 0.00,60.00,Tuesday
141,33306369.40651883
190,0.0
2,10, 1,10, 0,20, 0.00,60.00,Tuesday
141,33868178.83534282
190,0.0
2,10, 1,10, 0,21, 0.00,60.00,Tuesday
141,34751193.82630788
190,0.0
2,10, 1,10, 0,22, 0.00,60.00,Tuesday
141,35253554.66537802
190,0.0
2,10, 1,10, 0,23, 0.00,60.00,Tuesday
141,34937547.1348515
190,0.0
2,10, 1,10, 0,24, 0.00,60.00,Tuesday
141,35508439.87925892
190,0.0
2,11, 1,11, 0, 1, 0.00,60.00,Wednesday
141,35594218.41770133
190,0.0
2,11, 1,11, 0, 2, 0.00,60.00,Wednesday
141,35676581.85157605
190,0.0
2,11, 1,11, 0, 3, 0.00,60.00,Wednesday
141,35983915.7618039
190,0.0
2,11, 1,11, 0, 4, 0.00,60.00,Wednesday
141,35530563.766726546
190,0.0
2,11, 1,11, 0, 5, 0.00,60.00,Wednesday
141,35202180.52357774
190,0.0
2,11, 1,11, 0, 6, 0.00,60.00,Wednesday
141,35071163.677570604
190,0.0
2,11, 1,11, 0, 7, 0.00,60.00,Wednesday
141,35182576.7224275
190,0.0
2,11, 1,11, 0, 8, 0.00,60.00,Wednesday
141,35320751.78079822
190,0.0
2,11, 1,11, 0, 9, 0.00,60.00,Wednesday
141,35228492.79880806
190,0.0
2,11, 1,11, 0,10, 0.00,60.00,Wednesday
141,34978434.1320495
190,0.0
2,11, 1,11, 0,11, 0.00,60.00,Wednesday
141,34556324.35128062
190,0.0
2,11, 1,11, 0,12, 0.00,60.00,Wednesday
141,33863979.41970169
190,0.0
2,11, 1,11, 0,13, 0.00,60.00,Wednesday
141,33332339.684592403
190,0.0
2,11, 1,11, 0,14, 0.00,60.00,Wednesday
141,33112518.48730686
190,0.0
2,11, 1,11, 0,15, 0.00,60.00,Wednesday
141,33062859.399665095
190,0.0
2,11, 1,11, 0,16, 0.00,60.00,Wednesday
141,33091896.6869633
190,0.0
2,11, 1,11, 0,17, 0.00,60.00,Wednesday
141,32723529.12052241
190,0.0
2,11, 1,11, 0,18, 0.00,60.00,Wednesday
141,32370195.537976664
190,0.0
2,11, 1,11, 0,19, 0.00,60.00,Wednesday
141,32127057.85625411
190,0.0
2,11, 1,11, 0,20, 0.00,60.00,Wednesday
141,32105804.459452294
190,0.0
2,11, 1,11, 0,21, 0.00,60.00,Wednesday
141,32099050.461820796
190,0.0
2,11, 1,11, 0,22, 0.00,60.00,Wednesday
141,31344903.418887787
190,0.0
2,11, 1,11, 0,23, 0.00,60.00,Wednesday
141,30762557.394221764
190,0.0
2,11, 1,11, 0,24, 0.00,60.00,Wednesday
141,30808778.34587063
190,0.0
2,12, 1,12, 0, 1, 0.00,60.00,Thursday
141,31090431.414182853
190,0.0
2,12, 1,12, 0, 2, 0.00,60.00,Thursday
141,31132397.093353048
190,0.0
2,12, 1,12, 0, 3, 0.00,60.00,Thursday
141,30960166.388890866
190,0.0
2,12, 1,12, 0, 4, 0.00,60.00,Thursday
141,30991889.647734143
190,0.0
2,12, 1,12, 0, 5, 0.00,60.00,Thursday
141,31263112.379619136
190,0.0
2,12, 1,12, 0, 6, 0.00,60.00,Thursday
141,31894454.497558095
190,0.0
2,12, 1,12, 0, 7, 0.00,60.00,Thursday
141,32238872.484333985
190,0.0
2,12, 1,12, 0, 8, 0.00,60.00,Thursday
141,32328279.617885098
190,0.0
2,12, 1,12, 0, 9, 0.00,60.00,Thursday
141,31894960.411003437
190,0.0
2,12, 1,12, 0,10, 0.00,60.00,Thursday
141,30944705.10412811
190,0.0
2,12, 1,12, 0,11, 0.00,60.00,Thursday
141,30221539.772649843
190,0.0
2,12, 1,12, 0,12, 0.00,60.00,Thursday
141,29809525.92526811
190,0.0
2,12, 1,12, 0,13, 0.00,60.00,Thursday
141,29267760.853458688
190,0.0
2,12, 1,12, 0,14, 0.00,60.00,Thursday
141,28682332.062078156
190,0.0
2,12, 1,12, 0,15, 0.00,60.00,Thursday
141,28662806.1230531
190,0.0
2,12, 1,12, 0,16, 0.00,60.00,Thursday
141,28899225.47336482
190,0.0
2,12, 1,12, 0,17, 0.00,60.00,Thursday
141,30050400.71414596
190,0.0
2,12, 1,12, 0,18, 0.00,60.00,Thursday
141,30723019.960648958
190,0.0
2,12, 1,12, 0,19, 0.00,60.00,Thursday
141,30449610.882727046
190,0.0
2,12, 1,12, 0,20, 0.00,60.00,Thursday
141,29810299.620190058
190,0.0
2,12, 1,12, 0,21, 0.00,60.00,Thursday
141,29548203.60374526
190,0.0
2,12, 1,12, 0,22, 0.00,60.00,Thursday
141,29114949.239255372
190,0.0
2,12, 1,12, 0,23, 0.00,60.00,Thursday
141,28951428.12739678
190,0.0
2,12, 1,12, 0,24, 0.00,60.00,Thursday
141,28981439.824455544
190,0.0
2,13, 1,13, 0, 1, 0.00,60.00,Friday
141,28699215.24389714
190,0.0
2,13, 1,13, 0, 2, 0.00,60.00,Friday
141,28441221.2546301
190,0.0
2,13, 1,13, 0, 3, 0.00,60.00,Friday
141,28056415.023845762
190,0.0
2,13, 1,13, 0, 4, 0.00,60.00,Friday
141,27823708.367482062
190,0.0
2,13, 1,13, 0, 5, 0.00,60.00,Friday
141,27803037.229708467
190,0.0
2,13, 1,13, 0, 6, 0.00,60.00,Friday
141,27881362.74842716
190,0.0
2,13, 1,13, 0, 7, 0.00,60.00,Friday
141,28123862.8060097
190,0.0
2,13, 1,13, 0, 8, 0.00,60.00,Friday
141,28141143.328539196
190,0.0
2,13, 1,13, 0, 9, 0.00,60.00,Friday
141,27855516.394129746
190,0.0
2,13, 1,13, 0,10, 0.00,60.00,Friday
141,28574052.9645997
190,0.0
2,13, 1,13, 0,11, 0.00,60.00,Friday
141,29377890.604973197
190,0.0
2,13, 1,13, 0,12, 0.00,60.00,Friday
141,29429507.510728568
190,0.0
2,13, 1,13, 0,13, 0.00,60.00,Friday
141,29523831.19612837
190,0.0
2,13, 1,13, 0,14, 0.00,60.00,Friday
141,30014997.19303215
190,0.0
2,13, 1,13, 0,15, 0.00,60.00,Friday
141,30277100.340293486
190,0.0
2,13, 1,13, 0,16, 0.00,60.00,Friday
141,30165691.20871541
190,0.0
2,13, 1,13, 0,17, 0.00,60.00,Friday
141,29981098.983624034
190,0.0
2,13, 1,13, 0,18, 0.00,60.00,Friday
141,29885859.613259748
190,0.0
2,13, 1,13, 0,19, 0.00,60.00,Friday
141,30345282.585016355
190,0.0
2,13, 1,13, 0,20, 0.00,60.00,Friday
141,31172246.271828663
190,0.0
2,13, 1,13, 0,21, 0.00,60.00,Friday
141,31910699.955995794
190,0.0
2,13, 1,13, 0,22, 0.00,60.00,Friday
141,32374388.424007256
190,0.0
2,13, 1,13, 0,23, 0.00,60.00,Friday
141,32192460.75728731
190,0.0
2,13, 1,13, 0,24, 0.00,60.00,Friday
141,34138009.44012094
190,0.0
2,14, 1,14, 0, 1, 0.00,60.00,Saturday
141,35474793.24813206
190,0.0
2,14, 1,14, 0, 2, 0.00,60.00,Saturday
141,34907766.39577837
190,0.0
2,14, 1,14, 0, 3, 0.00,60.00,Saturday
141,35015513.13394327
190,0.0
2,14, 1,14, 0, 4, 0.00,60.00,Saturday
141,34799062.37750488
190,0.0
2,14, 1,14, 0, 5, 0.00,60.00,Saturday
141,34733950.1730434
190,0.0
2,14, 1,14, 0, 6, 0.00,60.00,Saturday
141,36151316.13792582
190,0.0
2,14, 1,14, 0, 7, 0.00,60.00,Saturday
141,37212434.039883256
190,0.0
2,14, 1,14, 0, 8, 0.00,60.00,Saturday
141,36850235.42527508
190,0.0
2,14, 1,14, 0, 9, 0.00,60.00,Saturday
141,37404091.340638116
190,0.0
2,14, 1,14, 0,10, 0.00,60.00,Saturday
141,38155404.0982525
190,0.0
2,14, 1,14, 0,11, 0.00,60.00,Saturday
141,37822139.82461643
190,0.0
2,14, 1,14, 0,12, 0.00,60.00,Saturday
141,37333451.26365962
190,0.0
2,14, 1,14, 0,13, 0.00,60.00,Saturday
141,36497324.84486642
190,0.0
2,14, 1,14, 0,14, 0.00,60.00,Saturday
141,34819140.3883261
190,0.0
2,14, 1,14, 0,15, 0.00,60.00,Saturday
141,34604564.57144126
190,0.0
2,14, 1,14, 0,16, 0.00,60.00,Saturday
141,34981510.75241144
190,0.0
2,14, 1,14, 0,17, 0.00,60.00,Saturday
141,35655524.14316133
190,0.0
2,14, 1,14, 0,18, 0.00,60.00,Saturday
141,36902371.672812484
190,0.0
2,14, 1,14, 0,19, 0.00,60.00,Saturday
141,36931067.02722386
190,0.0
2,14, 1,14, 0,20, 0.00,60.00,Saturday
141,37098146.100886315
190,0.0
2,14, 1,14, 0,21, 0.00,60.00,Saturday
141,36864175.07735697
190,0.0
2,14, 1,14, 0,22, 0.00,60.00,Saturday
141,36432390.076748304
190,0.0
2,14, 1,14, 0,23, 0.00,60.00,Saturday
141,36120856.91227216
190,0.0
2,14, 1,14, 0,24, 0.00,60.00,Saturday
141,35989415.91994723
190,0.0
2,15, 1,15, 0, 1, 0.00,60.00,Sunday
141,35237524.52136274
190,0.0
2,15, 1,15, 0, 2, 0.00,60.00,Sunday
141,33456844.698418073
190,0.0
2,15, 1,15, 0, 3, 0.00,60.00,Sunday
141,32595033.62931378
190,0.0
2,15, 1,15, 0, 4, 0.00,60.00,Sunday
141,31994193.682688776
190,0.0
2,15, 1,15, 0, 5, 0.00,60.00,Sunday
141,30883103.84082489
190,0.0
2,15, 1,15, 0, 6, 0.00,60.00,Sunday
141,29715084.856184468
190,0.0
2,15, 1,15, 0, 7, 0.00,60.00,Sunday
141,28564969.93927155
190,0.0
2,15, 1,15, 0, 8, 0.00,60.00,Sunday
141,27814120.2118072
190,0.0
2,15, 1,15, 0, 9, 0.00,60.00,Sunday
141,27252700.771117475
190,0.0
2,15, 1,15, 0,10, 0.00,60.00,Sunday
141,27199458.810721967
190,0.0
2,15, 1,15, 0,11, 0.00,60.00,Sunday
141,27855449.90859651
190,0.0
2,15, 1,15, 0,12, 0.00,60.00,Sunday
141,29497772.11115314
190,0.0
2,15, 1,15, 0,13, 0.00,60.00,Sunday
141,30719689.135597464
190,0.0
2,15, 1,15, 0,14, 0.00,60.00,Sunday
141,31242988.454909954
190,0.0
2,15, 1,15, 0,15, 0.00,60.00,Sunday
141,31467514.14441607
190,0.0
2,15, 1,15, 0,16, 0.00,60.00,Sunday
141,31099960.24567563
190,0.0
2,15, 1,15, 0,17, 0.00,60.00,Sunday
141,30852856.31474859
190,0.0
2,15, 1,15, 0,18, 0.00,60.00,Sunday
141,30975609.730579644
190,0.0
2,15, 1,15, 0,19, 0.00,60.00,Sunday
141,31262191.25468309
190,0.0
2,15, 1,15, 0,20, 0.00,60.00,Sunday
141,31623440.360150203
190,0.0
2,15, 1,15, 0,21, 0.00,60.00,Sunday
141,32373398.13989604
190,0.0
2,15, 1,15, 0,22, 0.00,60.00,Sunday
141,32711084.13503452
190,0.0
2,15, 1,15, 0,23, 0.00,60.00,Sunday
141,32753240.381910846
190,0.0
2,15, 1,15, 0,24, 0.00,60.00,Sunday
141,32938828.107085075
190,0.0
2,16, 1,16, 0, 1, 0.00,60.00,Monday
141,33614069.655638196
190,0.0
2,16, 1,16, 0, 2, 0.00,60.00,Monday
141,34244370.6306211
190,0.0
2,16, 1,16, 0, 3, 0.00,60.00,Monday
141,34594120.83099671
190,0.0
2,16, 1,16, 0, 4, 0.00,60.00,Monday
141,34846382.63120462
190,0.0
2,16, 1,16, 0, 5, 0.00,60.00,Monday
141,35228476.91649854
190,0.0
2,16, 1,16, 0, 6, 0.00,60.00,Monday
141,35555435.96062339
190,0.0
2,16, 1,16, 0, 7, 0.00,60.00,Monday
141,36237586.37786164
190,0.0
2,16, 1,16, 0, 8, 0.00,60.00,Monday
141,36878112.30612607
190,0.0
2,16, 1,16, 0, 9, 0.00,60.00,Monday
141,37145679.006610334
190,0.0
2,16, 1,16, 0,10, 0.00,60.00,Monday
141,37140757.29930336
190,0.0
2,16, 1,16, 0,11, 0.00,60.00,Monday
141,35678175.35742052
190,0.0
2,16, 1,16, 0,12, 0.00,60.00,Monday
141,34387288.65398272
190,0.0
2,16, 1,16, 0,13, 0.00,60.00,Monday
141,33386664.161865443
190,0.0
2,16, 1,16, 0,14, 0.00,60.00,Monday
141,32728356.775206447
190,0.0
2,16, 1,16, 0,15, 0.00,60.00,Monday
141,32668035.462655388
190,0.0
2,16, 1,16, 0,16, 0.00,60.00,Monday
141,32976131.736500643
190,0.0
2,16, 1,16, 0,17, 0.00,60.00,Monday
141,33708052.491302855
190,0.0
2,16, 1,16, 0,18, 0.00,60.00,Monday
141,35092754.59557879
190,0.0
2,16, 1,16, 0,19, 0.00,60.00,Monday
141,36544882.87422525
190,0.0
2,16, 1,16, 0,20, 0.00,60.00,Monday
141,37280571.48030976
190,0.0
2,16, 1,16, 0,21, 0.00,60.00,Monday
141,37859450.95183178
190,0.0
2,16, 1,16, 0,22, 0.00,60.00,Monday
141,38382897.73763515
190,0.0
2,16, 1,16, 0,23, 0.00,60.00,Monday
141,39173856.7995315
190,0.0
2,16, 1,16, 0,24, 0.00,60.00,Monday
141,39342508.00401056
190,0.0
2,17, 1,17, 0, 1, 0.00,60.00,Tuesday
141,39570400.70774821
190,0.0
2,17, 1,17, 0, 2, 0.00,60.00,Tuesday
141,40515393.63030489
190,0.0
2,17, 1,17, 0, 3, 0.00,60.00,Tuesday
141,41295486.62292548
190,0.0
2,17, 1,17, 0, 4, 0.00,60.00,Tuesday
141,41953915.291808896
190,0.0
2,17, 1,17, 0, 5, 0.00,60.00,Tuesday
141,42689633.330138765
190,0.0
2,17, 1,17, 0, 6, 0.00,60.00,Tuesday
141,43428466.412795834
190,0.0
2,17, 1,17, 0, 7, 0.00,60.00,Tuesday
141,43855995.25229847
190,0.0
2,17, 1,17, 0, 8, 0.00,60.00,Tuesday
141,44067456.69892041
190,0.0
2,17, 1,17, 0, 9, 0.00,60.00,Tuesday
141,44081242.146399096
190,0.0
2,17, 1,17, 0,10, 0.00,60.00,Tuesday
141,42383777.13283256
190,0.0
2,17, 1,17, 0,11, 0.00,60.00,Tuesday
141,39898820.181928776
190,0.0
2,17, 1,17, 0,12, 0.00,60.00,Tuesday
141,37757877.97883614
190,0.0
2,17, 1,17, 0,13, 0.00,60.00,Tuesday
141,36513766.75618587
190,0.0
2,17, 1,17, 0,14, 0.00,60.00,Tuesday
141,36255645.74564492
190,0.0
2,17, 1,17, 0,15, 0.00,60.00,Tuesday
141,36688779.065011755
190,0.0
2,17, 1,17, 0,16, 0.00,60.00,Tuesday
141,37930511.02824256
190,0.0
2,17, 1,17, 0,17, 0.00,60.00,Tuesday
141,38935767.04582358
190,0.0
2,17, 1,17, 0,18, 0.00,60.00,Tuesday
141,39094381.129474096
190,0.0
2,17, 1,17, 0,19, 0.00,60.00,Tuesday
141,39062204.3042951
190,0.0
2,17, 1,17, 0,20, 0.00,60.00,Tuesday
141,39320075.076334596
190,0.0
2,17, 1,17, 0,21, 0.00,60.00,Tuesday
141,39719839.21528221
190,0.0
2,17, 1,17, 0,22, 0.00,60.00,Tuesday
141,39802167.71443826
190,0.0
2,17, 1,17, 0,23, 0.00,60.00,Tuesday
141,39863166.763079725
190,0.0
2,17, 1,17, 0,24, 0.00,60.00,Tuesday
141,40376597.723834
190,0.0
2,18, 1,18, 0, 1, 0.00,60.00,Wednesday
141,40694654.679114826
190,0.0
2,18, 1,18, 0, 2, 0.00,60.00,Wednesday
141,40915455.85167276
190,0.0
2,18, 1,18, 0, 3, 0.00,60.00,Wednesday
141,40968620.038389035
190,0.0
2,18, 1,18, 0, 4, 0.00,60.00,Wednesday
141,40902482.50495881
190,0.0
2,18, 1,18, 0, 5, 0.00,60.00,Wednesday
141,40910721.57396101
190,0.0
2,18, 1,18, 0, 6, 0.00,60.00,Wednesday
141,41019640.494753726
190,0.0
2,18, 1,18, 0, 7, 0.00,60.00,Wednesday
141,41819177.10730216
190,0.0
2,18, 1,18, 0, 8, 0.00,60.00,Wednesday
141,42037670.353430025
190,0.0
2,18, 1,18, 0, 9, 0.00,60.00,Wednesday
141,42143112.839902356
190,0.0
2,18, 1,18, 0,10, 0.00,60.00,Wednesday
141,42067127.10122729
190,0.0
2,18, 1,18, 0,11, 0.00,60.00,Wednesday
141,41243068.59275694
190,0.0
2,18, 1,18, 0,12, 0.00,60.00,Wednesday
141,40611451.468907975
190,0.0
2,18, 1,18, 0,13, 0.00,60.00,Wednesday
141,40883964.50724844
190,0.0
2,18, 1,18, 0,14, 0.00,60.00,Wednesday
141,41491809.61632855
190,0.0
2,18, 1,18, 0,15, 0.00,60.00,Wednesday
141,41824718.19410676
190,0.0
2,18, 1,18, 0,16, 0.00,60.00,Wednesday
141,42534651.60686407
190,0.0
2,18, 1,18, 0,17, 0.00,60.00,Wednesday
141,42896623.09466648
190,0.0
2,18, 1,18, 0,18, 0.00,60.00,Wednesday
141,42638295.15541966
190,0.0
2,18, 1,18, 0,19, 0.00,60.00,Wednesday
141,42516147.834846094
190,0.0
2,18, 1,18, 0,20, 0.00,60.00,Wednesday
141,42645574.52569212
190,0.0
2,18, 1,18, 0,21, 0.00,60.00,Wednesday
141,42738032.45287045
190,0.0
2,18, 1,18, 0,22, 0.00,60.00,Wednesday
141,42967348.49968453
190,0.0
2,18, 1,18, 0,23, 0.00,60.00,Wednesday
141,43133820.11268504
190,0.0
2,18, 1,18, 0,24, 0.00,60.00,Wednesday
141,43356035.771174245
190,0.0
2,19, 1,19, 0, 1, 0.00,60.00,Thursday
141,43102239.868544266
190,0.0
2,19, 1,19, 0, 2, 0.00,60.00,Thursday
141,43231697.43186123
190,0.0